smiles,code,A [log10(atm)],B [C],C [C],TMIN [C],TMAX [C],FORMULA,NAME,CAS No,mp [K],mp_type
Cc1cc(C)cc(N(C)C)c1,"1,2",4.434806407719209,1862.6541,192.958,101.97,257.64,C10H15N,"3,5,N,N-tetramethylaniline",4913-13-7,274.23,Yaw
CNc1ccc(C(C)C)cc1,2,4.053886407719209,1756.1366,192.435,103.47,275.51,C10H15N,"aniline, p-isopropyl-N-methyl-,",6950-79-4,274.23,Yaw
COP(=S)(OC)Oc1ccc(SC)c(C)c1,3,6.047486407719209,3947.6,273.15,224.76,413.81,C10H15O3PS2,fenthion,55-38-9,280.65,Yaw
C=C1C2CCC(C2)C1(C)C,"1,2",4.114406407719208,1573.4887,221.884,40.57,190.74,C10H16,camphene,79-92-5,320.15,Yaw
C=C(C)C1CC=C(C)CC1,"1,2",4.186626407719209,1691.1486,227.441,51.28,207.79,C10H16,D-limonene,5989-27-5,199.0,Yaw
CC1=CCC(C(C)C)C=C1,3,3.943146407719208,1600.73,220.401,54.45,219.1,C10H16,alpha-phellandrene,99-83-2,226.67069747802654,ML
C=C1C=CC(C(C)C)CC1,3,3.893666407719208,1573.67,218.609,53.91,219.42,C10H16,beta-phellandrene,555-10-2,225.3574768725035,ML
CC1=CCC2CC1C2(C)C,"1,2",4.156196407719209,1614.6584,231.645,35.82,187.19,C10H16,alpha-pinene,80-56-8,197.64,Yaw
C=C1CCC2CC1C2(C)C,"1,2",3.879516407719208,1457.9803,209.905,43.2,197.52,C10H16,beta-pinene,127-91-3,211.61,Yaw
CC1=CC=C(C(C)C)CC1,"1,2",3.920146407719209,1495.3975,207.414,50.37,205.78,C10H16,alpha-terpinene,99-86-5,214.12,Yaw
CC1=CCC(C(C)C)=CC1,"1,2",3.901636407719209,1514.772,205.19,56.77,215.51,C10H16,gamma-terpinene,99-85-4,214.12,Yaw
CC1=CCC(=C(C)C)CC1,3,4.072326407719209,1585.5842,203.804,62.54,216.63,C10H16,terpinolene,586-62-9,221.2378121401638,ML
CC1=CCC2C(C1)C2(C)C,2,4.193176407719209,1589.5409,208.526,53.17,199.87,C10H16,"3-carene, (+)",498-15-7,298.15,Yaw
C=CC#CCCCCCC,2,3.984546407719209,1574.8751,209.694,58.81,217.85,C10H16,1-decen-3-yne,33622-26-3,219.59057047206133,ML
C=CCC#CCCCCC,2,3.984546407719209,1574.8751,209.694,58.81,217.85,C10H16,1-decen-4-yne,24948-66-1,219.8317765927262,ML
CC=CC#CCCCCC,2,3.984546407719209,1574.8751,209.694,58.81,217.85,C10H16,2-decen-4-yne,116668-40-7,223.06769971784556,ML
C=CC(C)=CCC=C(C)C,2,4.921266407719209,1890.5416,203.606,74.33,205.58,C10H16,"3,7-dimethyl-1,3,6-octatriene",13877-91-3,245.98,Yaw
C=CC(C)=CCCC(=C)C,2,4.921266407719209,1890.5416,203.606,74.33,205.58,C10H16,"3,7-dimethyl-1,3,7-octatriene",502-99-8,245.98,Yaw
CC=C(C)C=CC=C(C)C,2,4.921266407719209,1890.5416,203.606,74.33,205.58,C10H16,"cis,trans-2,6-dimethyl-2,4,6-octatriene",7216-56-0,252.55,Yaw
C=CC(=C)CCC=C(C)C,3,4.111676407719209,1769.7543,244.87,9.4,219.55,C10H16,beta-myrcene,123-35-3,234.72324244779372,ML
CC1=CC2C(CC1)C2(C)C,2,3.749876407719209,1396.5052,201.862,25.0,203.06,C10H16,(+)-2-carene,4497-92-1,298.15,Yaw
C=CCCC=CCCC=C,2,4.921266407719209,1890.5416,203.606,74.33,205.58,C10H16,"1,5,9-decatriene",13393-64-1,245.98,Yaw
CC1=C(C)C(C)C(C)=C1C,3,1.7674064077192089,743.1799,239.94,-36.23,266.87,C10H16,"1,2,3,4,5-pentamethylcyclopentadiene",4045-44-7,232.11192116096151,ML
CC1=CCCC(C)=CCC1,3,3.3850764077192084,1371.7869,209.694,50.81,235.11,C10H16,"1,5-dimethyl-1,5-cyclooctadiene",3760-14-3,202.14273796711595,ML
CCCCCCCC#CC=O,2,3.645886407719209,1668.6674,192.958,108.97,305.92,C10H16O,2-decynal,94497-70-8,262.15,Yaw
CCCCCCC#CCC=O,2,3.645886407719209,1668.6674,192.958,108.97,305.92,C10H16O,3-decynal,97672-10-1,262.15,Yaw
CCCCCC#CCCC=O,2,3.645886407719209,1668.6674,192.958,108.97,305.92,C10H16O,4-decynal,17522-26-8,262.15,Yaw
CCCCC#CCCCC=O,2,3.645886407719209,1668.6674,192.958,108.97,305.92,C10H16O,5-decynal,---,262.15,Yaw
CCCC#CCCCCC=O,2,3.645886407719209,1668.6674,192.958,108.97,305.92,C10H16O,6-decynal,---,262.15,Yaw
CCC#CCCCCCC=O,2,3.645886407719209,1668.6674,192.958,108.97,305.92,C10H16O,7-decynal,---,262.15,Yaw
CC#CCCCCCCC=O,2,3.645886407719209,1668.6674,192.958,108.97,305.92,C10H16O,8-decynal,---,262.15,Yaw
C#CCCCCCCCC=O,2,3.645886407719209,1668.6674,192.958,108.97,305.92,C10H16O,9-decynal,---,262.15,Yaw
C#CCCCCCC(C)C=O,2,3.407816407719209,1569.1817,195.738,100.97,309.34,C10H16O,2-methyl-8-nonynal,---,262.15,Yaw
C#CCCCCC(C)CC=O,2,3.407816407719209,1569.1817,195.738,100.97,309.34,C10H16O,3-methyl-8-nonynal,---,262.15,Yaw
C#CCCCC(C)CCC=O,2,3.407816407719209,1569.1817,195.738,100.97,309.34,C10H16O,4-methyl-8-nonynal,---,262.15,Yaw
C#CCCC(C)CCCC=O,2,3.407816407719209,1569.1817,195.738,100.97,309.34,C10H16O,5-methyl-8-nonynal,---,262.15,Yaw
C#CCC(C)CCCCC=O,2,3.407816407719209,1569.1817,195.738,100.97,309.34,C10H16O,6-methyl-8-nonynal,---,262.15,Yaw
C#CC(C)CCCCCC=O,2,3.407816407719209,1569.1817,195.738,100.97,309.34,C10H16O,7-methyl-8-nonynal,---,262.15,Yaw
CCCCCC(C)C#CC=O,2,3.407816407719209,1569.1817,195.738,100.97,309.34,C10H16O,4-methyl-2-nonynal,---,262.15,Yaw
CCCCC(C)CC#CC=O,2,3.407816407719209,1569.1817,195.738,100.97,309.34,C10H16O,5-methyl-2-nonynal,---,262.15,Yaw
CCCC(C)CCC#CC=O,2,3.407816407719209,1569.1817,195.738,100.97,309.34,C10H16O,6-methyl-2-nonynal,---,262.15,Yaw
CCC(C)CCCC#CC=O,2,3.407816407719209,1569.1817,195.738,100.97,309.34,C10H16O,7-methyl-2-nonynal,---,262.15,Yaw
CC(C)CCCCC#CC=O,2,3.407816407719209,1569.1817,195.738,100.97,309.34,C10H16O,8-methyl-2-nonynal,---,262.15,Yaw
CC(C)=C1CCC(C)CC1=O,"1,2",1.946056407719209,505.5406,35.727,96.38,271.59,C10H16O,pulegone,89-82-7,277.5327318927865,ML
CCCCCCCC#CC(=O)O,3,4.825196407719209,2368.954,165.622,188.0,358.0,C10H16O2,2-decynoic acid,---,308.15,Yaw
CCCCCCC#CCC(=O)O,3,4.825196407719209,2368.954,165.622,188.0,358.0,C10H16O2,3-decynoic acid,---,301.65,Yaw
CCCCCC#CCCC(=O)O,3,4.825196407719209,2368.954,165.622,188.0,358.0,C10H16O2,4-decynoic acid,---,301.65,Yaw
CCCCC#CCCCC(=O)O,3,4.825196407719209,2368.954,165.622,188.0,358.0,C10H16O2,5-decynoic acid,---,301.65,Yaw
CCCC#CCCCCC(=O)O,3,4.825196407719209,2368.954,165.622,188.0,358.0,C10H16O2,6-decynoic acid,---,301.65,Yaw
CCC#CCCCCCC(=O)O,3,4.825196407719209,2368.954,165.622,188.0,358.0,C10H16O2,7-decynoic acid,---,301.65,Yaw
CC#CCCCCCCC(=O)O,3,4.825196407719209,2368.954,165.622,188.0,358.0,C10H16O2,8-decynoic acid,---,301.65,Yaw
C#CCCCCCCCC(=O)O,3,4.825196407719209,2368.954,165.622,188.0,358.0,C10H16O2,9-decynoic acid,1642-49-5,295.15,Yaw
CCCCCC(C)C#CC(=O)O,3,4.825196407719209,2368.954,165.622,188.0,358.0,C10H16O2,4-methyl-2-nonynoic acid,---,301.65,Yaw
CCCCC(C)CC#CC(=O)O,3,4.825196407719209,2368.954,165.622,188.0,358.0,C10H16O2,5-methyl-2-nonynoic acid,---,301.65,Yaw
CCCC(C)CCC#CC(=O)O,3,4.825196407719209,2368.954,165.622,188.0,358.0,C10H16O2,6-methyl-2-nonynoic acid,---,301.65,Yaw
CCC(C)CCCC#CC(=O)O,3,4.825196407719209,2368.954,165.622,188.0,358.0,C10H16O2,7-methyl-2-nonynoic acid,---,301.65,Yaw
CC(C)CCCCC#CC(=O)O,3,4.825196407719209,2368.954,165.622,188.0,358.0,C10H16O2,8-methyl-2-nonynoic acid,---,301.65,Yaw
CCCCCC#CC(C)C(=O)O,3,4.825196407719209,2368.954,165.622,188.0,358.0,C10H16O2,2-methyl-3-nonynoic acid,---,301.65,Yaw
CCCCC(C)C#CCC(=O)O,3,4.825196407719209,2368.954,165.622,188.0,358.0,C10H16O2,5-methyl-3-nonynoic acid,---,301.65,Yaw
CCCC(C)CC#CCC(=O)O,3,4.825196407719209,2368.954,165.622,188.0,358.0,C10H16O2,6-methyl-3-nonynoic acid,---,301.65,Yaw
CCC(C)CCC#CCC(=O)O,3,4.825196407719209,2368.954,165.622,188.0,358.0,C10H16O2,7-methyl-3-nonynoic acid,---,301.65,Yaw
CC(C)CCCC#CCC(=O)O,3,4.825196407719209,2368.954,165.622,188.0,358.0,C10H16O2,8-methyl-3-nonynoic acid,---,301.65,Yaw
CCCCC#CCC(C)C(=O)O,3,4.825196407719209,2368.954,165.622,188.0,358.0,C10H16O2,2-methyl-4-nonynoic acid,---,301.65,Yaw
CCCCC#CC(C)CC(=O)O,3,4.825196407719209,2368.954,165.622,188.0,358.0,C10H16O2,3-methyl-4-nonynoic acid,---,301.65,Yaw
CCCC(C)C#CCCC(=O)O,3,4.825196407719209,2368.954,165.622,188.0,358.0,C10H16O2,6-methyl-4-nonynoic acid,---,301.65,Yaw
CCC(C)CC#CCCC(=O)O,3,4.825196407719209,2368.954,165.622,188.0,358.0,C10H16O2,7-methyl-4-nonynoic acid,---,301.65,Yaw
CC(C)CCC#CCCC(=O)O,3,4.825196407719209,2368.954,165.622,188.0,358.0,C10H16O2,8-methyl-4-nonynoic acid,---,301.65,Yaw
CCCCC(C#CC(=O)O)CC,3,4.825196407719209,2368.954,165.622,188.0,358.0,C10H16O2,4-ethyl-2-octynoic acid,---,301.65,Yaw
CCCC(CC)CC#CC(=O)O,3,4.825196407719209,2368.954,165.622,188.0,358.0,C10H16O2,5-ethyl-2-octynoic acid,---,301.65,Yaw
CCC(CC)CCC#CC(=O)O,3,4.825196407719209,2368.954,165.622,188.0,358.0,C10H16O2,6-ethyl-2-octynoic acid,---,301.65,Yaw
CCCCCCc1cccs1,2,4.689556407719208,1944.6485,192.402,103.57,250.72,C10H16S,2-hexylthiophene,18794-77-9,234.0,Yaw
CCCCCCc1ccsc1,2,4.770406407719209,1975.5193,191.846,105.17,250.17,C10H16S,3-hexylthiophene,1693-86-3,234.0,Yaw
CC(C)CCCc1cccs1,2,4.4966764077192085,1870.916,193.792,99.57,252.13,C10H16S,2-isohexylthiophene,---,234.0,Yaw
CC(C)CCCc1ccsc1,2,4.572306407719209,1899.8381,193.236,101.17,251.56,C10H16S,3-isohexylthiophene,---,234.0,Yaw
CCCCC(C)c1cccs1,2,4.315976407719209,1801.7312,195.182,95.57,253.57,C10H16S,2-sec-hexylthiophene,---,234.0,Yaw
CCCCC(C)c1ccsc1,2,4.386876407719209,1828.8874,194.626,97.17,252.99,C10H16S,3-sec-hexylthiophene,---,234.0,Yaw
CCCC(C)(C)c1cccs1,2,4.146336407719208,1736.6766,196.572,91.57,255.06,C10H16S,2-tert-hexylthiophene,---,234.0,Yaw
CCCC(C)(C)c1ccsc1,2,4.212926407719209,1762.2274,196.016,93.17,254.46,C10H16S,3-tert-hexylthiophene,---,234.0,Yaw
CCCCCc1ccsc1C,2,4.729706407719209,1959.9815,192.124,104.37,250.44,C10H16S,2-methyl-3-pentylthiophene,---,234.0,Yaw
CCCCCc1csc(C)c1,2,4.770406407719209,1975.5193,191.846,105.17,250.17,C10H16S,2-methyl-4-pentyl thiophene,---,234.0,Yaw
CCCCCc1ccc(C)s1,2,4.811656407719209,1991.2662,191.568,105.97,249.89,C10H16S,2-methyl-5-pentyl thiophene,---,234.0,Yaw
CCCCCc1sccc1C,2,4.811656407719209,1991.2662,191.568,105.97,249.89,C10H16S,3-methyl-2-pentylthiophene,---,234.0,Yaw
CCCCCc1cscc1C,2,4.853486407719209,2007.2264,191.29,106.77,249.62,C10H16S,3-methyl-4-pentyl thiophene,---,234.0,Yaw
CCCCCc1cc(C)cs1,2,4.895896407719208,2023.4045,191.012,107.57,249.35,C10H16S,3-methyl-5-pentylthiophene,---,234.0,Yaw
ClC1CCC2CCCCC2C1,3,3.839986407719208,1569.2788,193.79,80.52,249.64,C10H17Cl,2-chlorodecahydronaphthalene,5597-81-9,311.02456780684054,ML
CCCCCCC(C)=CC#N,2,3.249006407719208,1502.2189,194.07,98.77,315.51,C10H17N,3-methyl-2(3)-nonenenitrile,53153-66-5,268.6988737374731,ML
C#CCCCCCCCC,"1,2",4.483626407719209,1773.1267,221.017,57.58,202.91,C10H18,1-decyne,764-93-2,229.16,Yaw
CC#CCCCCCCC,"1,2",4.683836407719209,1823.6292,204.746,73.05,211.34,C10H18,2-decyne,2384-70-5,214.66,Yaw
CCC#CCCCCCC,"1,2",4.681676407719209,1804.8736,206.219,68.81,205.79,C10H18,3-decyne,2384-85-2,214.66,Yaw
CCCC#CCCCCC,2,4.8709964077192085,1852.361,206.58,67.77,198.75,C10H18,4-decyne,2384-86-3,214.66,Yaw
CCCCC#CCCCC,"1,2",4.680726407719209,1796.7345,206.858,66.97,203.38,C10H18,5-decyne,1942-46-7,200.15,Yaw
C#CC(C)CCCCCC,2,4.523556407719209,1730.2973,208.804,61.37,200.97,C10H18,3-methyl-1-nonyne,---,214.66,Yaw
C#CCC(C)CCCCC,2,4.523556407719209,1730.2973,208.804,61.37,200.97,C10H18,4-methyl-1-nonyne,---,214.66,Yaw
C#CCCC(C)CCCC,2,4.523556407719209,1730.2973,208.804,61.37,200.97,C10H18,5-methyl-1-nonyne,---,214.66,Yaw
C#CCCCC(C)CCC,2,4.523556407719209,1730.2973,208.804,61.37,200.97,C10H18,6-methyl-1-nonyne,---,214.66,Yaw
C#CCCCCC(C)CC,2,4.523556407719209,1730.2973,208.804,61.37,200.97,C10H18,7-methyl-1-nonyne,---,214.66,Yaw
C#CCCCCCC(C)C,2,4.523556407719209,1730.2973,208.804,61.37,200.97,C10H18,8-methyl-1-nonyne,---,214.66,Yaw
CC#CC(C)CCCCC,2,4.523556407719209,1730.2973,208.804,61.37,200.97,C10H18,4-methyl-2-nonyne,---,214.66,Yaw
CC#CCC(C)CCCC,2,4.523556407719209,1730.2973,208.804,61.37,200.97,C10H18,5-methyl-2-nonyne,---,214.66,Yaw
CC#CCCC(C)CCC,2,4.523556407719209,1730.2973,208.804,61.37,200.97,C10H18,6-methyl-2-nonyne,---,214.66,Yaw
CC#CCCCC(C)CC,2,4.523556407719209,1730.2973,208.804,61.37,200.97,C10H18,7-methyl-2-nonyne,---,214.66,Yaw
CC#CCCCCC(C)C,2,4.523556407719209,1730.2973,208.804,61.37,200.97,C10H18,8-methyl-2-nonyne,---,214.66,Yaw
CCC#CC(C)CCCC,2,4.523556407719209,1730.2973,208.804,61.37,200.97,C10H18,5-methyl-3-nonyne,---,214.66,Yaw
CCC#CCC(C)CCC,2,4.523556407719209,1730.2973,208.804,61.37,200.97,C10H18,6-methyl-3-nonyne,---,214.66,Yaw
CCC#CCCC(C)CC,2,4.523556407719209,1730.2973,208.804,61.37,200.97,C10H18,7-methyl-3-nonyne,---,214.66,Yaw
CCC#CCCCC(C)C,2,4.523556407719209,1730.2973,208.804,61.37,200.97,C10H18,8-methyl-3-nonyne,---,214.66,Yaw
CCCC#CCCC(C)C,2,4.523556407719209,1730.2973,208.804,61.37,200.97,C10H18,8-methyl-4-nonyne,70732-43-3,214.66,Yaw
C#CC(C)(C)CCCCC,2,4.250486407719209,1634.1163,210.75,55.77,203.01,C10H18,"3,3-dimethyl-1-octyne",---,214.66,Yaw
C#CC(C)C(C)CCCC,2,4.250486407719209,1634.1163,210.75,55.77,203.01,C10H18,"3,4-dimethyl-1-octyne",---,214.66,Yaw
C#CC(C)CC(C)CCC,2,4.250486407719209,1634.1163,210.75,55.77,203.01,C10H18,"3,5-dimethyl-1-octyne",---,214.66,Yaw
C#CC(C)CCC(C)CC,2,4.250486407719209,1634.1163,210.75,55.77,203.01,C10H18,"3,6-dimethyl-1-octyne",---,214.66,Yaw
C#CC(C)CCCC(C)C,2,4.250486407719209,1634.1163,210.75,55.77,203.01,C10H18,"3,7-dimethyl-1-octyne",---,214.66,Yaw
CC#CC(C)(C)CCCC,2,4.250486407719209,1634.1163,210.75,55.77,203.01,C10H18,"4,4-dimethyl-2-octyne",---,214.66,Yaw
CC#CC(C)C(C)CCC,2,4.250486407719209,1634.1163,210.75,55.77,203.01,C10H18,"4,5-dimethyl-2-octyne",---,214.66,Yaw
CC#CC(C)CC(C)CC,2,4.250486407719209,1634.1163,210.75,55.77,203.01,C10H18,"4,6-dimethyl-2-octyne",---,214.66,Yaw
CC#CC(C)CCC(C)C,2,4.250486407719209,1634.1163,210.75,55.77,203.01,C10H18,"4,7-dimethyl-2-octyne",---,214.66,Yaw
CCCCC#CC(C)(C)C,2,4.250486407719209,1634.1163,210.75,55.77,203.01,C10H18,"2,2-dimethyl-3-octyne",19482-57-6,214.66,Yaw
C#CC(CC)CCCCC,2,4.523556407719209,1730.2973,208.804,61.37,200.97,C10H18,3-ethyl-1-octyne,---,214.66,Yaw
C#CCC(CC)CCCC,2,4.523556407719209,1730.2973,208.804,61.37,200.97,C10H18,4-ethyl-1-octyne,---,214.66,Yaw
C#CCCC(CC)CCC,2,4.523556407719209,1730.2973,208.804,61.37,200.97,C10H18,5-ethyl-1-octyne,---,214.66,Yaw
C#CCCCC(CC)CC,2,4.523556407719209,1730.2973,208.804,61.37,200.97,C10H18,6-ethyl-1-octyne,---,214.66,Yaw
CCC#CC(C)(CC)CC,2,4.544046407719208,1737.5052,208.666,61.77,200.83,C10H18,5-ethyl-5-methyl-3-heptyne,61228-10-2,214.66,Yaw
CC(C)(C)C#CC(C)(C)C,2,4.679346407719208,1785.0694,207.775,64.0,200.0,C10H18,"2,2,5,5-tetramethyl-3-hexyne",17530-24-4,271.2537819550003,ML
C1CCC2CCCCC2C1,"1,2",4.072586407719209,1606.5388,201.626,68.23,224.34,C10H18,cis-decahydronaphthalene,493-01-6,230.2,Yaw
CCCCCC1=CCCC1,2,4.373006407719209,1656.03,204.99,59.81,201.7,C10H18,1-pentylcyclopentene,4291-98-9,190.15,Yaw
CC1=CCC(C(C)C)C1C,2,4.001116407719208,1538.2432,210.75,50.77,204.98,C10H18,"1,5-dimethyl-4-isopropylcyclopentene",6912-05-6,190.15,Yaw
C1CCC(C2CCCC2)C1,3,5.002656407719209,2521.245,315.278,51.0,220.97,C10H18,"1,1'-bicyclopentyl",1636-39-1,252.57216509716963,ML
C=CC=CCCCCCC,2,4.568406407719209,1748.7199,209.082,62.07,200.71,C10H18,"1,3-decadiene",2051-25-4,203.55,Yaw
C=CCCCCCCC=C,"1,2",4.678796407719209,1771.8042,209.638,60.47,195.09,C10H18,"1,9-decadiene",1647-16-1,203.55,Yaw
CCC(C)=CCC=C(C)C,2,4.544046407719208,1737.5052,208.666,61.77,200.83,C10H18,"2,6-dimethyl-2,5-octadiene",116668-48-5,203.55,Yaw
CC(C)=CCCC=C(C)C,"1,2",4.6870164077192085,1770.5973,209.916,59.67,193.78,C10H18,"2,7-dimethyl-2,6-octadiene",16736-42-8,198.75,Yaw
CC=C(C)CCC(C)=CC,2,4.005876407719208,1550.0958,213.252,50.07,205.14,C10H18,"3,6-dimethyl-2,6-octadiene",116668-49-6,203.55,Yaw
CC=C(C)C=CCC(C)C,"1,2",4.593316407719208,1743.6464,210.055,59.27,196.17,C10H18,"3,7-dimethyl-2,4-octadiene",56523-26-3,203.55,Yaw
CC=CC(C)C(C)C=CC,"1,2",4.772076407719209,1750.1189,213.391,49.67,178.04,C10H18,"4,5-dimethyl-2,6-octadiene",18476-57-8,208.35,Yaw
C/C=C(/C)CCC=C(C)C,2,4.527166407719209,1734.1932,209.36,61.27,200.99,C10H18,"cis-2,6-dimethyl-2,6-octadiene",2492-22-0,203.55,Yaw
CC1=CCC(C(C)C)CC1,"1,2",4.475076407719208,1688.9068,207.553,58.17,197.07,C10H18,1-methyl-4-isopropylcyclohexene,5502-88-5,191.4556495828118,ML
CC1CC=C(C(C)C)CC1,"1,2",4.2683064077192086,1611.4944,209.499,52.57,196.7,C10H18,"4-methyl-1-isopropylcyclohexene, (R)",619-52-3,196.45964685083777,ML
CC1C=CC(C(C)C)CC1,2,4.051656407719209,1553.171,209.638,52.17,204.47,C10H18,"trans-3-methyl-6-isopropylcyclohexene, (3R)",5113-93-9,202.10704706241697,ML
CC(C)(C)C1=CCCCC1,"1,2",4.2868664077192085,1616.3587,209.499,52.57,196.03,C10H18,1-tert-butyl-1-cyclohexene,3419-66-7,203.86322657529516,ML
C=CC(C)CCC=C(C)C,"1,2",4.658916407719208,1730.4206,212.571,52.03,184.51,C10H18,"3,7-dimethyl-1,6-octadiene",2436-90-0,203.55,Yaw
C1CCC2(CC1)CCCC2,3,4.982836407719208,2345.5084,282.014,59.72,218.97,C10H18,spiro(4-5)decane,176-63-6,270.53316054740685,ML
C1CC[C@H]2CCC[C@H]2CC1,3,4.3695664077192085,1753.2647,212.541,67.96,218.39,C10H18,cis-bicyclo[5.3.0]decane,16189-46-1,278.90138245182385,ML
CCCCC1CCCCC1=O,2,3.9882964077192087,1658.6705,198.24,84.37,251.6,C10H18O,2-butylcyclohexanone,1126-18-7,300.33,Yaw
CC(C)CC1CCC(=O)CC1,2,4.321356407719208,1785.1728,195.46,92.37,248.58,C10H18O,4-isobutylcyclohexanone,42061-72-3,300.33,Yaw
CC1CCC(C(C)C)C(=O)C1,2,3.866006407719208,1612.1103,199.352,81.17,252.86,C10H18O,"cis-5-methyl-2-isopropylcyclohexanone, (2R)",1196-31-2,300.33,Yaw
CC1CCC(C(C)C)CC1=O,2,4.393136407719209,1812.3842,194.904,93.97,247.99,C10H18O,"trans-2-methyl-5-isopropylcyclohexanone, (2S)",13163-73-0,300.33,Yaw
CCCCCCCC#CCO,3,5.100286407719208,2217.9263,187.219,130.0,275.0,C10H18O,2-decyn-1-ol,4117-14-0,275.05,Yaw
CCCCCCC#CCCO,3,5.100286407719208,2217.9263,187.219,130.0,275.0,C10H18O,3-decyn-1-ol,51721-39-2,275.05,Yaw
CCCCCC#CCCCO,3,5.100286407719208,2217.9263,187.219,130.0,275.0,C10H18O,4-decyn-1-ol,---,275.05,Yaw
CCCCC#CCCCCO,3,5.100286407719208,2217.9263,187.219,130.0,275.0,C10H18O,5-decyn-1-ol,---,275.05,Yaw
CCCC#CCCCCCO,3,5.100286407719208,2217.9263,187.219,130.0,275.0,C10H18O,6-decyn-1-ol,---,275.05,Yaw
CCC#CCCCCCCO,3,5.100286407719208,2217.9263,187.219,130.0,275.0,C10H18O,7-decyn-1-ol,---,275.05,Yaw
CC#CCCCCCCCO,3,5.100286407719208,2217.9263,187.219,130.0,275.0,C10H18O,8-decyn-1-ol,---,275.05,Yaw
C#CCCCCCCCCO,3,5.100286407719208,2217.9263,187.219,130.0,275.0,C10H18O,9-decyn-1-ol,---,275.05,Yaw
CCCCCCC#CC(C)O,3,5.100286407719208,2217.9263,187.219,130.0,275.0,C10H18O,3-decyn-2-ol,---,275.05,Yaw
CCCCCC#CCC(C)O,3,5.100286407719208,2217.9263,187.219,130.0,275.0,C10H18O,4-decyn-2-ol,---,275.05,Yaw
CCCCC#CCCC(C)O,3,5.100286407719208,2217.9263,187.219,130.0,275.0,C10H18O,5-decyn-2-ol,---,275.05,Yaw
CCCC#CCCCC(C)O,3,5.100286407719208,2217.9263,187.219,130.0,275.0,C10H18O,6-decyn-2-ol,---,275.05,Yaw
CCC#CCCCCC(C)O,3,5.100286407719208,2217.9263,187.219,130.0,275.0,C10H18O,7-decyn-2-ol,---,275.05,Yaw
CC#CCCCCCC(C)O,3,5.100286407719208,2217.9263,187.219,130.0,275.0,C10H18O,8-decyn-2-ol,---,275.05,Yaw
C#CCCCCCCC(C)O,3,5.100286407719208,2217.9263,187.219,130.0,275.0,C10H18O,9-decyn-2-ol,---,275.05,Yaw
CCCCCC#CC(O)CC,3,5.100286407719208,2217.9263,187.219,130.0,275.0,C10H18O,4-decyn-3-ol,---,275.05,Yaw
CCCCC#CCC(O)CC,3,5.100286407719208,2217.9263,187.219,130.0,275.0,C10H18O,5-decyn-3-ol,---,275.05,Yaw
CCCC#CCCC(O)CC,3,5.100286407719208,2217.9263,187.219,130.0,275.0,C10H18O,6-decyn-3-ol,---,275.05,Yaw
CCC#CCCCC(O)CC,3,5.100286407719208,2217.9263,187.219,130.0,275.0,C10H18O,7-decyn-3-ol,---,275.05,Yaw
CC#CCCCCC(O)CC,3,5.100286407719208,2217.9263,187.219,130.0,275.0,C10H18O,8-decyn-3-ol,---,275.05,Yaw
C#CCCCCCC(O)CC,3,5.100286407719208,2217.9263,187.219,130.0,275.0,C10H18O,9-decyn-3-ol,---,275.05,Yaw
CCCCC#CC(O)CCC,3,5.100286407719208,2217.9263,187.219,130.0,275.0,C10H18O,5-decyn-4-ol,---,275.05,Yaw
CCCC#CCC(O)CCC,3,5.100286407719208,2217.9263,187.219,130.0,275.0,C10H18O,6-decyn-4-ol,---,275.05,Yaw
CCC#CCCC(O)CCC,3,5.100286407719208,2217.9263,187.219,130.0,275.0,C10H18O,7-decyn-4-ol,---,275.05,Yaw
CC#CCCCC(O)CCC,3,5.100286407719208,2217.9263,187.219,130.0,275.0,C10H18O,8-decyn-4-ol,---,275.05,Yaw
C#CCCCCC(O)CCC,3,5.100286407719208,2217.9263,187.219,130.0,275.0,C10H18O,9-decyn-4-ol,---,275.05,Yaw
CCCC#CC(O)CCCC,3,5.100286407719208,2217.9263,187.219,130.0,275.0,C10H18O,6-decyn-5-ol,---,275.05,Yaw
CCC#CCC(O)CCCC,3,5.100286407719208,2217.9263,187.219,130.0,275.0,C10H18O,7-decyn-5-ol,---,275.05,Yaw
CC#CCCC(O)CCCC,3,5.100286407719208,2217.9263,187.219,130.0,275.0,C10H18O,8-decyn-5-ol,---,275.05,Yaw
C#CCCCC(O)CCCC,3,5.100286407719208,2217.9263,187.219,130.0,275.0,C10H18O,9-decyn-5-ol,---,275.05,Yaw