smiles,code,A [log10(atm)],B [C],C [C],TMIN [C],TMAX [C],FORMULA,NAME,CAS No,mp [K],mp_type
FC(Cl)(Cl)C(Cl)(Cl)OS(F)(F)(F)(F)F,3,3.708416407719208,1229.937,188.427,31.63,172.54,C2Cl4F6OS,"pentafluoro(1,1,2,2-tetrachloro-2-fluoroethoxy) sulfur",762-90-3,271.0779143466572,ML
O=C(Cl)C(Cl)(Cl)Cl,"1,2",4.364306407719209,1488.9557,223.167,15.25,143.28,C2Cl4O,trichloroacetyl chloride,76-02-8,216.2,Yaw
ClC#C[Si](Cl)(Cl)Cl,3,1.0326664077192085,374.67,113.29,15.31,398.81,C2Cl4Si,trichloro(chloroethynyl)silane,29442-46-4,244.3845178031802,ML
N#CC(F)(F)F,"1,2",4.777886407719208,925.9256,262.594,-126.1,-55.77,C2F3N,trifluoroacetonitrile,353-85-5,128.73,Yaw
O=S=NC(=O)C(F)(F)F,3,5.457426407719209,1902.73,273.15,-13.86,95.85,C2F3NO2S,"2,2,2-trifluoro-N-sulfinylacetamide",26454-68-2,249.03170612094308,ML
O=S(=O)(N=C=S)C(F)(F)F,3,4.762086407719209,1655.07,235.544,13.6,135.46,C2F3NO2S2,trifluoromethane-sulfonyl isothiocyanate,51587-30-5,283.21655705858603,ML
O=C=NS(=O)(=O)C(F)(F)F,3,4.838156407719208,1511.12,240.146,-15.24,92.91,C2F3NO3S,trifluoromethane-sulfonyl isocyanate,30227-06-6,264.50080697561503,ML
N#CSC(F)(F)F,3,5.514186407719208,1704.0,273.15,-47.15,53.72,C2F3NS,trifluoromethyl thiocyanate,690-24-4,235.36676482387952,ML
O=[N+]([O-])C(F)(F)C(F)([N+](=O)[O-])[N+](=O)[O-],3,7.519286407719209,3016.3,273.15,39.85,144.72,C2F3N3O6,"1,1,2-trifluoro-1,2,2-trinitroethane",20165-38-2,328.26053969965295,ML
FC(F)=C(F)F,"1,2",4.164036407719209,717.0359,248.497,-132.3,33.3,C2F4,tetrafluoroethylene,116-14-3,142.0,Yaw
N#CC(F)(F)N(F)F,3,4.640386407719209,1018.9,251.8,-95.56,-17.0,C2F4N2,(difluoroamino)difluoroacetonitrile,5131-88-4,180.75384385819157,ML
O=[N+]([O-])C(F)(F)C(F)(F)[N+](=O)[O-],"1,2",4.740246407719209,1410.9558,239.154,-30.0,78.68,C2F4N2O4,"1,1,2,2-tetrafluoro-1,2-dinitroethane",356-16-1,231.65,Yaw
O=S(=O)(F)C(F)=C(F)F,3,4.346986407719209,1412.0,273.15,-46.42,75.84,C2F4O2S,trifluoroethylene sulfonyl fluoride,684-10-6,185.75251695352313,ML
O=C(F)OOC(F)(F)F,3,5.528386407719209,1423.8,273.15,-80.98,-0.78,C2F4O3,trifluoromethyl fluoroperoxy-methanoate,16118-40-4,202.89360992945947,ML
O=C(OS(=O)(=O)F)C(F)(F)F,3,5.795916407719208,1949.148,290.293,-36.39,64.43,C2F4O4S,trifluoroacetyl fluorosulfate,5762-53-8,230.36343641782886,ML
FC(F)(F)C(F)(F)I,"1,2",1.2833764077192082,158.6582,111.176,-61.03,50.33,C2F5I,pentafluoro-iodoethane,354-64-3,183.85040911301348,ML
O=C(N=S(F)F)C(F)(F)F,3,5.384186407719209,1798.0,273.15,-33.15,80.57,C2F5NOS,"S,S-difluoro-N-(trifluoroacetyl)-sulfilimine",24433-65-6,251.27359773616107,ML
O=S=NC(F)(F)C(F)(F)F,3,4.762186407719208,1516.0,273.15,-44.94,66.67,C2F5NOS,"1,1,2,2,2-pentafluoro-N-sulfinylethanamine",10564-50-8,231.10028667230426,ML
FC(F)(F)S[Hg]SC(F)(F)F,3,5.950196407719208,2760.59,283.85,68.67,204.82,C2F6HgS2,bis(trifluoromethyl-thio)mercury,900001-62-9,327.8747036317074,ML
FC(F)(F)N(I)C(F)(F)F,3,4.519286407719209,1490.0,273.15,-40.34,80.08,C2F6IN,N-iodo-bis(trifluoromethyl)-amine,5764-87-4,214.0066177674344,ML
FC(F)(F)N=NC(F)(F)F,"1,2",4.942146407719209,1196.0,273.15,-97.86,-15.45,C2F6N2,bis(trifluoromethyl)diazene,372-63-4,189.24705237489147,ML
O=S(F)C(F)(F)C(F)(F)F,3,4.246966407719208,1096.956,237.429,-58.42,40.57,C2F6OS,pentafluoroethyl sulfinyl fluoride,20621-31-2,209.1429117208745,ML
O=S(C(F)(F)F)C(F)(F)F,3,4.728926407719209,1458.772,271.935,-51.23,57.52,C2F6OS,bis(trifluoromethyl) sulfoxide,30341-37-8,194.27270550461756,ML
[O-]S(=[SH]C(F)(F)F)C(F)(F)F,3,4.665386407719208,1605.98,273.15,-27.82,94.83,C2F6OS2,S-trifluoromethyl-(trifluoromethyl)-thiosulfinate,63548-94-7,174.8768429601847,ML
O=S(=O)(OOC(F)(F)F)OC(F)(F)F,3,4.195246407719209,1147.043,227.257,-38.48,67.29,C2F6O5S,"peroxysulfuric acid, bis(trifluoromethyl) ester",41765-14-4,239.62617962722143,ML
FC(F)(F)SSC(F)(F)F,"1,2",4.883326407719209,1502.8424,273.15,-50.97,54.82,C2F6S2,bis(trifluoromethyl) disulfide,372-64-5,199.2143526581926,ML
FN(F)C(F)(F)C(F)(F)F,"1,2",4.628806407719209,1088.0,273.15,-106.01,-17.35,C2F7N,heptafluoroethanamine,354-80-3,90.35,Yaw
FN(C(F)(F)F)C(F)(F)F,3,4.119186407719209,972.7,273.15,-111.03,-18.39,C2F7N,perfluorodimethylamine,359-62-6,132.28418503744024,ML
O=S(=O)(F)OC(F)(F)C(F)(F)N(F)F,3,4.994286407719208,1625.0,273.15,-36.79,73.09,C2F7NO3S,tetrafluoro-2-(difluoroamino)ethyl fluorosulfonate,4188-34-5,193.06671999352395,ML
O=S(F)(F)(C(F)(F)F)C(F)(F)F,3,4.5504264077192085,1542.809,312.746,-72.85,50.32,C2F8OS,difluorooxo-bis(trifluoromethyl)-sulfur,33716-15-3,200.6952912853376,ML
FC(F)=C(F)S(F)(F)(F)(F)F,3,4.479286407719209,1310.0,273.15,-74.15,40.38,C2F8S,pentafluoro(trifluoro-vinyl) sulfur,1186-51-2,180.07078772866464,ML
FC(F)(F)S(F)(F)C(F)(F)F,3,5.119286407719208,1507.0,273.15,-57.87,39.62,C2F8S,difluorobis(trifluoro-methyl)sulfur,30341-38-9,150.40878328585123,ML
FC(F)(F)OS(F)(F)(F)(F)OC(F)(F)F,3,4.063966407719208,1030.534,224.382,-51.03,49.48,C2F10O2S,tetrafluorobis(tri-fluoromethoxy)sulfur,2004-38-8,212.91926597767883,ML
FC(F)(F)OOS(F)(F)(F)(F)OC(F)(F)F,3,4.376466407719208,1198.274,229.924,-38.42,64.1,C2F10O3S,(trifluoromethoxy)-[(trifluoromethyl)-dioxy] sulfur tetrafluoride,41938-43-6,200.85763057941926,ML
FC(F)(F)N(C(F)(F)F)S(F)(F)(F)(F)F,3,4.9892864077192085,1530.0,273.15,-50.45,53.2,C2F11NS,[bis(trifluoromethyl)-amino]sulfur pentafluoride,13888-13-6,231.7766777768271,ML
FC(F)(F)[AsH]C(F)(F)F,3,3.5722164077192087,852.74,217.88,-66.15,42.8,C2HAsF6,bis(trifluoromethyl)-arsine,371-74-4,153.7245867740414,ML
C#CBr,"1,2",4.147686407719209,1016.5185,240.331,-71.71,23.93,C2HBr,bromoacetylene,593-61-3,196.3700434637791,ML
FC(F)(F)C(Cl)Br,"1,2",3.670346407719209,951.7304,209.103,-50.0,73.37,C2HBrClF3,halothane,151-67-7,157.4,Yaw
FC(Cl)C(F)(F)Br,"1,2",3.843006407719209,1017.6702,212.311,-34.52,75.01,C2HBrClF3,"1-bromo-2-chloro-1,1,2-trifluoroethane",354-06-3,178.0804685771327,ML
FC(Br)C(F)(F)Cl,3,4.6702864077192086,1516.2,273.15,-41.71,73.87,C2HBrClF3,"2-bromo-1-chloro-1,1,2-trifluoroethane",354-20-1,176.72552866202582,ML
FC(F)(Br)C(Cl)Br,3,4.765436407719209,1864.0,273.15,7.31,144.37,C2HBr2ClF2,"1,2-dibromo-2-chloro-1,1-difluoroethane",421-36-3,232.75704830423823,ML
FC(Cl)(Br)C(Cl)Br,3,4.968286407719209,2169.2,273.15,43.56,191.62,C2HBr2Cl2F,"1,2-dibromo-1,2-dichlorofluoroethane",421-33-0,250.80610036027926,ML
O=C(O)C(F)(Br)Br,3,5.218146407719209,2029.9,191.16,94.78,221.66,C2HBr2FO2,dibromofluoroacetic acid,353-99-1,328.220125614746,ML
FC(F)(F)C(Br)Br,2,4.657346407719209,1625.5548,273.15,-24.52,100.0,C2HBr2F3,"1,1-dibromo-2,2,2-trifluoroethane",354-30-3,224.6247283898396,ML
FC(Br)C(F)(F)Br,"1,2",4.794926407719209,1673.4308,273.15,-22.48,99.43,C2HBr2F3,"1,2-dibromo-1,1,2-trifluoroethane",354-04-1,192.6589498551717,ML
O=CC(Br)(Br)Br,2,4.974846407719209,2100.2287,248.17,58.18,201.19,C2HBr3O,tribromoacetaldehyde,115-17-3,287.7735432317704,ML
C#CCl,2,1.740636407719209,415.8216,227.312,-112.49,61.53,C2HCl,chloroacetylene,593-63-5,147.15,Yaw
FC(F)=CCl,"1,2",4.226526407719208,969.9059,248.08,-89.27,127.4,C2HClF2,"2-chloro-1,1-difluoroethylene",359-10-4,134.65,Yaw
FC(F)C(F)(F)Cl,"1,2",4.283656407719208,1020.7868,250.037,-84.45,126.85,C2HClF4,"1-chloro-1,1,2,2-tetrafluoroethane",354-25-6,156.15,Yaw
FC(Cl)C(F)(F)F,"1,2",3.9245764077192087,859.5544,230.978,-82.92,122.28,C2HClF4,"2-chloro-1,1,1,2-tetrafluoroethane",2837-89-0,74.0,Yaw
FC(Cl)C(F)(F)S(F)(F)(F)(F)F,3,4.7952864077192086,1580.0,273.15,-36.48,78.41,C2HClF8S,"(1,1,2-trifluoro-2-chloroethyl)sulfur pentafluoride",22756-13-4,215.18924748559496,ML
FC(F)C(F)(Cl)Cl,2,4.165696407719208,1185.4209,248.28,-52.23,58.45,C2HCl2F3,"1,1-dichloro-1,2,2-trifluoroethane",812-04-4,179.24368726583273,ML
FC(Cl)C(F)(F)Cl,"1,2",4.331386407719209,1187.648,246.346,-55.17,188.45,C2HCl2F3,"1,2-dichloro-1,1,2-trifluoroethane",354-23-4,195.15,Yaw
FC(F)(F)C(Cl)Cl,"1,2",4.226166407719209,1118.9704,236.952,-53.72,183.68,C2HCl2F3,"2,2-dichloro-1,1,1-trifluoroethane",306-83-2,166.0,Yaw
ClC=C(Cl)Cl,"1,2",3.994686407719208,1156.9806,202.58,-5.66,110.65,C2HCl3,trichloroethylene,79-01-6,188.4,Yaw
FC(F)C(Cl)(Cl)Cl,3,4.128826407719209,1246.6926,227.506,-20.06,98.19,C2HCl3F2,"1,1,1-trichloro-2,2-difluoroethane",354-12-1,205.24440282625733,ML
FC(Cl)C(F)(Cl)Cl,3,4.103746407719209,1238.2912,227.304,-20.39,98.33,C2HCl3F2,"1,1,2-trichloro-1,2-difluoroethane",354-15-4,188.38808821013245,ML
FC(F)(Cl)C(Cl)Cl,"1,2",4.192566407719209,1254.3627,227.337,-20.8,95.06,C2HCl3F2,"1,2,2-trichloro-1,1-difluoroethane",354-21-2,185.88351726282121,ML
O=S(=O)(F)OC(Cl)(Cl)C(F)Cl,3,4.549286407719209,1911.0,273.15,24.05,176.68,C2HCl3F2O3S,"fluorosulfuric acid, 2-fluoro-1,1,2-trichloroethyl ester",42087-88-7,263.1088109501928,ML
O=C(Cl)C(Cl)Cl,"1,2",4.5065764077192085,1476.0086,219.973,11.11,132.99,C2HCl3O,dichloroacetyl chloride,79-36-7,225.6832724988666,ML
O=CC(Cl)(Cl)Cl,"1,2",4.642506407719209,1647.7201,257.07,-4.48,122.46,C2HCl3O,trichloroacetaldehyde,75-87-6,216.0,Yaw
O=C(O)C(Cl)(Cl)Cl,"1,2",4.612866407719209,1707.8546,174.187,83.8,224.0,C2HCl3O2,trichloroacetic acid,76-03-9,330.0,Yaw
FC(Cl)C(Cl)(Cl)Cl,2,3.8914264077192087,1129.6939,174.559,21.15,141.82,C2HCl4F,"1,1,1,2-tetrachloro-2-fluoroethane",354-11-0,177.8,Yaw
FC(Cl)(Cl)C(Cl)Cl,"1,2",3.839816407719209,1118.6365,174.776,20.77,141.4,C2HCl4F,"1,1,2,2-tetrachloro-1-fluoroethane",354-14-3,190.55,Yaw
FC(Cl)(Cl)SC(Cl)Cl,3,5.945796407719209,2507.335,273.15,47.21,171.04,C2HCl4FS,(dichloromethyl)-(dichlorofluoro-methyl) sulfide,900001-57-2,260.26900355132756,ML
ClC(Cl)C(Cl)(Cl)Cl,"1,2",3.972966407719209,1477.3553,209.802,42.57,192.53,C2HCl5,pentachloroethane,76-01-7,244.15,Yaw
FC=C(F)F,"1,2",5.747626407719208,1840.7531,371.413,-130.11,-33.45,C2HF3,trifluoroethene,359-11-5,94.53,Yaw
O=C(O)C(F)(F)F,"1,2",4.625146407719209,1399.7554,230.84,-15.69,218.1,C2HF3O2,trifluoroacetic acid,76-05-1,257.9,Yaw
FC(F)C(F)(F)F,"1,2",4.114646407719208,810.9068,245.168,-109.91,66.02,C2HF5,pentafluoroethane,354-33-6,172.52,Yaw
FC(F)OC(F)(F)F,"1,2",4.099396407719208,842.1762,239.989,-99.16,-18.27,C2HF5O,trifluoromethyl difluoromethyl ether,3822-68-2,116.0,Yaw
FC(F)(F)NC(F)(F)F,3,5.015286407719208,1335.0,273.15,-79.56,10.03,C2HF6N,bis(trifluoromethyl)-amine,371-77-7,138.12426064911878,ML
FC(F)=CS(F)(F)(F)(F)F,3,4.809286407719209,1447.6,273.15,-56.77,47.95,C2HF7S,pentafluoro(difluoro-ethenyl) sulfur,58636-78-5,198.0362627822611,ML
Cl/C=C\[As](Cl)Cl,3,2.6070664077192083,785.09,115.65,59.29,224.8,C2H2AsCl3,dichloro-cis-(2-chlorovinyl)arsine,34461-56-8,241.7649159923096,ML
ClC=C[As](Cl)Cl,3,5.772186407719209,2648.0,273.15,72.86,210.84,C2H2AsCl3,dichloro-trans-(2-chlorovinyl)arsine,50361-05-2,235.20565208577196,ML
FC(F)(Cl)CBr,"1,2",4.627436407719209,1580.5,273.15,-30.3,92.16,C2H2BrClF2,"2-bromo-1-chloro-1,1-difluoroethane",421-01-2,197.25,Yaw
FC(Cl)C(Cl)Br,3,4.790286407719209,1907.4,273.15,12.77,151.73,C2H2BrCl2F,"1-bromo-1,2-dichloro-2-fluoroethane",430-88-6,223.63539039222215,ML
FC(F)(F)CBr,"1,2",4.550556407719209,1361.3,273.15,-61.48,47.51,C2H2BrF3,"2-bromo-1,1,1-trifluoroethane",421-06-7,179.25,Yaw
C=C(Br)Br,"1,2",4.241856407719209,1368.1621,230.488,-7.03,116.69,C2H2Br2,"1,1-dibromoethene",593-92-0,256.62,Yaw
BrC=CBr,2,4.306886407719209,1696.5839,273.168,-4.0,150.36,C2H2Br2,"trans-1,2-dibromoethene",590-12-5,266.65,Yaw
ClC(Cl)(Br)CBr,"1,2",3.1233364077192087,1261.2479,201.854,50.19,245.03,C2H2Br2Cl2,"1,2-dibromo-1,1-dichloroethane",75-81-0,247.15,Yaw
ClC(Br)C(Cl)Br,"1,2",5.5608864077192095,2729.0938,295.766,70.96,223.09,C2H2Br2Cl2,"1,2-dibromo-1,2-dichloroethane",683-68-1,247.15,Yaw
FC(F)(Br)CBr,"1,2",4.189776407719209,1352.0368,230.349,-7.63,117.53,C2H2Br2F2,"1,2-dibromo-1,1-difluoroethane",75-82-1,211.85,Yaw
BrC(Br)C(Br)Br,"1,2",4.703426407719209,2031.5098,188.371,120.17,273.08,C2H2Br4,"1,1,2,2-tetrabromoethane",79-27-6,273.15,Yaw
BrCC(Br)(Br)Br,3,5.504306407719209,2303.6713,186.564,125.37,256.17,C2H2Br4,"1,1,1,2-tetrabromoethane",630-16-0,273.15,Yaw
O=C(Cl)CF,3,5.614586407719209,1916.6,273.15,-17.45,87.55,C2H2ClFO,fluoroacetyl chloride,359-06-8,182.78269263476622,ML
O=C(F)CCl,3,5.722186407719208,1982.5,273.15,-12.4,92.55,C2H2ClFO,chloroacetyl fluoride,359-14-8,226.24946410618887,ML
FCC(F)(F)Cl,2,4.252416407719209,1075.3095,238.24,-62.92,33.89,C2H2ClF3,"1-chloro-1,1,2-trifluoroethane",421-04-5,153.570812552887,ML
FC(F)C(F)Cl,2,4.836046407719208,1274.7465,248.963,-59.18,35.26,C2H2ClF3,"1-chloro-1,2,2-trifluoroethane",431-07-2,166.82247233727435,ML
FC(F)(F)CCl,"1,2",4.409556407719209,1221.1962,269.993,-75.86,27.24,C2H2ClF3,"2-chloro-1,1,1-trifluoroethane",75-88-7,167.56,Yaw
O=S(=O)(Cl)CC(F)(F)F,3,5.039286407719208,1881.0,273.15,-1.33,123.83,C2H2ClF3O2S,"2,2,2-trifluoroethanesulfonyl chloride",1648-99-3,264.64857361815695,ML
FC(F)(Cl)CS(F)(F)(F)(F)F,3,4.999286407719208,1719.9,273.15,-23.17,92.92,C2H2ClF7S,"pentafluoro(2-chloro-2,2-difluoroethyl) sulfur",68010-35-5,235.84384871527428,ML
C=C(Cl)Cl,"1,2",4.547946407719208,1265.8783,247.291,-50.38,51.46,C2H2Cl2,"1,1-dichloroethylene",75-35-4,150.65,Yaw
ClC=CCl,"1,2",4.553106407719208,1364.09,239.245,-27.23,230.85,C2H2Cl2,"cis-1,2-dichloroethylene",156-59-2,193.15,Yaw
FCC(F)(Cl)Cl,3,6.259406407719208,1462.8208,215.741,-36.04,29.77,C2H2Cl2F2,"1,1-dichloro-1,2-difluoroethane",1842-05-3,169.9003345352182,ML
FC(F)C(Cl)Cl,3,7.838736407719208,2027.8056,240.732,-32.1,28.29,C2H2Cl2F2,"1,1-dichloro-2,2-difluoroethane",471-43-2,189.91714003157418,ML
FC(F)(Cl)CCl,"1,2",4.222526407719209,1142.7349,224.278,-37.05,67.51,C2H2Cl2F2,"1,2-dichloro-1,1-difluoroethane",1649-08-7,171.35,Yaw
FC(Cl)C(F)Cl,"1,2",4.031026407719208,1016.919,205.473,-33.46,67.16,C2H2Cl2F2,"1,2-dichloro-1,2-difluoroethane",431-06-1,171.95,Yaw
O=C(Cl)CCl,"1,2",4.421516407719209,1420.798,215.487,9.95,129.53,C2H2Cl2O,chloroacetyl chloride,79-04-9,251.15,Yaw
O=CC(Cl)Cl,"1,2",4.359656407719209,1377.4803,225.411,-4.68,113.98,C2H2Cl2O,dichloroacetaldehyde,79-02-7,223.0,Yaw
O=C(O)C(Cl)Cl,"1,2",4.7650464077192085,1868.435,198.063,83.08,220.49,C2H2Cl2O2,dichloroacetic acid,79-43-6,286.55,Yaw
FCC(Cl)(Cl)Cl,2,4.216406407719209,1396.9319,237.758,-8.65,119.02,C2H2Cl3F,"1,1,1-trichloro-2-fluoroethane",2366-36-1,170.0,Yaw
FC(Cl)(Cl)CCl,"1,2",4.004956407719209,1172.9403,205.022,-5.74,111.86,C2H2Cl3F,"1,1,2-trichloro-1-fluoroethane",811-95-0,168.45,Yaw
FC(Cl)C(Cl)Cl,"1,2",4.7072864077192085,1619.1502,241.516,4.25,125.95,C2H2Cl3F,"1,1,2-trichloro-2-fluoroethane",359-28-4,209.23134203183295,ML
ClCC(Cl)(Cl)Cl,"1,2",3.890836407719209,1402.2168,222.34,20.61,168.27,C2H2Cl4,"1,1,1,2-tetrachloroethane",630-20-6,202.94,Yaw
ClC(Cl)C(Cl)Cl,"1,2",3.991126407719209,1369.9004,197.086,36.21,174.15,C2H2Cl4,"1,1,2,2-tetrachloroethane",79-34-5,229.35,Yaw
ClC(Cl)SC(Cl)Cl,3,7.268186407719208,4255.967,396.563,68.62,214.3,C2H2Cl4S,bis(dichloromethyl) sulfide,51174-93-7,278.8788489291831,ML
N#CCF,"1,2",5.650926407719208,1992.8,273.15,-8.56,99.34,C2H2FN,fluoroacetonitrile,503-20-8,176.93478606461747,ML
C=C(F)F,"1,2",4.0168764077192085,695.5101,256.297,-144.0,29.65,C2H2F2,"1,1-difluoroethylene",75-38-7,129.15,Yaw
FCC(F)(F)F,"1,2",4.159916407719209,906.7124,244.514,-101.15,101.06,C2H2F4,"1,1,1,2-tetrafluoroethane",811-97-2,169.85,Yaw
FC(F)C(F)F,"1,2",4.391206407719209,1020.1046,255.456,-92.81,118.65,C2H2F4,"1,1,2,2-tetrafluoroethane",359-35-3,184.15,Yaw
FC(F)OC(F)F,"1,2",5.0534064077192085,1308.8268,254.299,-65.55,23.27,C2H2F4O,tetrafluorodimethyl ether,1691-17-4,166.15,Yaw
O=S(F)OCC(F)(F)F,3,5.299286407719208,1755.0,273.15,-28.72,77.97,C2H2F4O2S,"fluorosulfurous acid, 2,2,2-trifluoroethyl ester",75988-14-6,246.097774106296,ML
FCS(F)(F)(F)(F)C(F)(F)F,3,4.319286407719209,1425.0,273.15,-43.31,81.48,C2H2F8S,tetrafluoro(fluoro-methyl)(trifluoro-methyl) sulfur,56919-36-9,202.1017002144165,ML
FC(F)(F)CS(F)(F)(F)(F)F,3,4.889286407719209,1530.8,273.15,-47.04,60.48,C2H2F8S,"pentafluoro(2,2,2-trifluoroethyl)sulfur",65227-29-4,229.08254822807464,ML
I/C=C\I,3,4.602166407719209,1791.5709,208.247,60.85,208.29,C2H2I2,"cis-1,2-diiodoethene",590-26-1,259.15,Yaw
I/C=C/I,3,4.531426407719208,1743.539,203.724,68.18,208.42,C2H2I2,"trans-1,2-diiodoethylene",590-27-2,345.55,Yaw
ICC(I)(I)I,3,3.3210264077192084,1839.4417,161.172,192.44,447.92,C2H2I4,"1,1,1,2-tetraiodoethane",---,401.0759452467446,ML
IC(I)C(I)I,3,3.406736407719209,1882.5285,159.885,196.15,446.27,C2H2I4,"1,1,2,2-tetraiodoethane",---,398.89147427538046,ML
C=C=O,"1,2",4.262086407719209,893.7123,259.188,-113.7,-33.56,C2H2O,ketene,463-51-4,122.0,Yaw
O=C(O)C(=O)O,"1,2",3.2259664077192083,1659.1509,149.212,175.68,418.03,C2H2O4,oxalic acid,144-62-7,462.65,Yaw
C=CBr,"1,2",4.524036407719208,1204.6473,250.427,-62.34,34.83,C2H3Br,vinyl bromide,593-60-2,135.35,Yaw
FCC(Cl)Br,3,4.704286407719208,1672.5,273.15,-19.17,106.68,C2H3BrClF,2-bromo-2-chloro-1-fluoroethane,430-54-6,204.2144290985528,ML
CC(=O)Br,"1,2",2.7053864077192085,641.7985,161.23,-21.29,105.7,C2H3BrO,acetyl bromide,506-96-7,177.15,Yaw
[SiH3]C#CBr,3,5.3131864077192095,1763.0,273.15,-28.08,78.6,C2H3BrSi,(bromoethynyl)silane,68196-78-1,217.2367046945454,ML
FC(Br)CBr,"1,2",4.548006407719209,1561.8952,219.574,23.38,158.1,C2H3Br2F,"1,2-dibromo-1-fluoroethane",358-97-4,220.4141814609699,ML
CC(Br)(Br)Br,2,4.073846407719208,1603.2336,207.97,61.27,216.97,C2H3Br3,"1,1,1-tribromoethane",2311-14-0,243.85,Yaw
BrCC(Br)Br,"1,2",4.541926407719209,1782.668,203.542,74.01,216.81,C2H3Br3,"1,1,2-tribromoethane",78-74-0,243.85,Yaw
C=CCl,"1,2",4.027816407719208,910.286,239.8,-85.74,4.46,C2H3Cl,vinyl chloride,75-01-4,119.36,Yaw
CC(F)(F)Cl,"1,2",4.193556407719209,968.4959,240.899,-81.46,137.11,C2H3ClF2,"1-chloro-1,1-difluoroethane",75-68-3,142.72,Yaw
FCC(F)Cl,"1,2",3.363756407719209,972.1871,253.968,-68.6,63.46,C2H3ClF2,"1-chloro-1,2-difluoroethane",338-64-7,166.7047427768338,ML
FC(F)CCl,"1,2",4.416306407719208,1286.5162,256.21,-51.91,56.41,C2H3ClF2,"2-chloro-1,1-difluoroethane",338-65-8,168.68692656013474,ML
FC(Cl)COS(F)(F)(F)(F)F,3,3.886166407719209,1114.592,197.264,-3.99,113.63,C2H3ClF6OS,pentafluoro(2-fluoro-2-chloroethoxy) sulfur,900001-58-3,233.73191610815115,ML
ClC#C[GeH3],3,5.351186407719208,1761.0,273.15,-29.65,75.55,C2H3ClGe,(chloroethynyl)-germane,68196-76-9,206.2707415429063,ML
CC(=O)Cl,"1,2",4.402796407719209,1259.9327,234.317,-33.81,72.85,C2H3ClO,acetyl chloride,75-36-5,160.3,Yaw
O=CCCl,"1,2",4.382776407719208,1338.8586,220.432,-6.68,107.58,C2H3ClO,chloroacetaldehyde,107-20-0,220.9057162918698,ML
O=C(O)CCl,"1,2",4.6616064077192085,1714.4498,178.731,78.4,214.84,C2H3ClO2,chloroacetic acid,79-11-8,333.15,Yaw
COC(=O)Cl,"1,2",4.5836464077192085,1367.8815,227.876,-16.28,91.93,C2H3ClO2,methyl chloroformate,79-22-1,201.38883845478412,ML
[SiH3]C#CCl,3,5.3821864077192085,1645.0,273.15,-46.66,50.6,C2H3ClSi,(chloroethynyl)silane,58468-21-6,190.3935045087193,ML
CC(F)(Cl)Cl,"1,2",4.217826407719208,1149.716,240.735,-52.21,204.35,C2H3Cl2F,"1,1-dichloro-1-fluoroethane",1717-00-6,169.98,Yaw
FCC(Cl)Cl,2,4.6994264077192085,1375.586,241.358,-32.31,73.44,C2H3Cl2F,"1,1-dichloro-2-fluoroethane",430-53-5,186.20774700878255,ML
FC(Cl)CCl,"1,2",4.135436407719209,1271.8248,231.693,-20.29,99.99,C2H3Cl2F,"1,2-dichloro-1-fluoroethane",430-57-9,213.15,Yaw
CC(Cl)(Cl)Cl,"1,2",4.127676407719209,1253.467,229.624,-30.05,271.85,C2H3Cl3,"1,1,1-trichloroethane",71-55-6,243.1,Yaw
ClCC(Cl)Cl,"1,2",4.270916407719208,1459.582,228.099,9.16,139.83,C2H3Cl3,"1,1,2-trichloroethane",79-00-5,236.5,Yaw
C=C[Si](Cl)(Cl)Cl,"1,2",4.182376407719208,1402.9767,242.6,-11.21,118.87,C2H3Cl3Si,trichlorovinylsilane,75-94-5,178.35,Yaw
ClCC(Cl)[Si](Cl)(Cl)Cl,3,5.054776407719209,2227.0,260.0,60.85,208.47,C2H3Cl5Si,"(1,2-dichloroethyl)-trichlorsilane",684-00-4,257.86046511130445,ML
C=CF,"1,2",4.363026407719208,857.1623,268.611,-131.33,54.65,C2H3F,vinyl fluoride,75-02-5,112.65,Yaw
CC(=O)F,"1,2",2.2055664077192088,597.8901,250.282,-103.97,63.65,C2H3FO,acetyl fluoride,557-99-3,189.15,Yaw
O=C(O)CF,"1,2",6.255716407719209,2775.1,275.61,65.46,190.43,C2H3FO2,fluoroacetic acid,144-49-0,308.35,Yaw
CC(F)(F)F,"1,2",4.2388164077192085,867.8636,251.982,-111.33,72.71,C2H3F3,"1,1,1-trifluoroethane",420-46-2,161.34,Yaw
FCC(F)F,"1,2",3.878656407719209,842.324,212.319,-84.0,23.33,C2H3F3,"1,1,2-trifluoroethane",430-66-0,189.15,Yaw