smiles,code,A [log10(atm)],B [C],C [C],TMIN [C],TMAX [C],FORMULA,NAME,CAS No,mp [K],mp_type
CCCCCC(C)CC(=O)O,2,4.717926407719209,2050.9032,188.232,122.57,276.1,C9H18O2,3-methyloctanoic acid,6061-10-5,263.40818567572745,ML
CCCCC(C)CCC(=O)O,2,4.717926407719209,2050.9032,188.232,122.57,276.1,C9H18O2,4-methyloctanoic acid,153831-54-0,243.65,Yaw
CCCC(C)CCCC(=O)O,2,4.717926407719209,2050.9032,188.232,122.57,276.1,C9H18O2,5-methyloctanoic acid,---,270.10166620708304,ML
CCC(C)CCCCC(=O)O,2,4.717926407719209,2050.9032,188.232,122.57,276.1,C9H18O2,6-methyloctanoic acid,504-99-4,270.1937038487351,ML
CC(C)CCCCCC(=O)O,2,4.717926407719209,2050.9032,188.232,122.57,276.1,C9H18O2,7-methyloctanoic acid,693-19-6,270.48209860161654,ML
CCCCCC(C)(C)C(=O)O,2,4.717926407719209,2050.9032,188.232,122.57,276.1,C9H18O2,"2,2-dimethylheptanoic acid",---,257.3947989404572,ML
CCCCC(C)C(C)C(=O)O,2,4.717926407719209,2050.9032,188.232,122.57,276.1,C9H18O2,"2,3-dimethylheptanoic acid",---,259.93913768267055,ML
CCCC(C)CC(C)C(=O)O,2,4.717926407719209,2050.9032,188.232,122.57,276.1,C9H18O2,"2,4-dimethylheptanoic acid",---,260.36475654260397,ML
CCC(C)CCC(C)C(=O)O,2,4.717926407719209,2050.9032,188.232,122.57,276.1,C9H18O2,"2,5-dimethylheptanoic acid",---,259.91609150961614,ML
CC(C)CCCC(C)C(=O)O,2,4.717926407719209,2050.9032,188.232,122.57,276.1,C9H18O2,"2,6-dimethylheptanoic acid",60148-94-9,259.4487765343238,ML
CCCCCC(CC)C(=O)O,2,4.717926407719209,2050.9032,188.232,122.57,276.1,C9H18O2,2-ethylheptanoic acid,3274-29-1,261.9522393848892,ML
CCCCC(CC)CC(=O)O,2,4.717926407719209,2050.9032,188.232,122.57,276.1,C9H18O2,3-ethylheptanoic acid,14272-47-0,264.16324441254613,ML
CCCC(CC)CCC(=O)O,2,4.717926407719209,2050.9032,188.232,122.57,276.1,C9H18O2,4-ethylheptanoic acid,---,264.53919447046,ML
CCC(CC)CCCC(=O)O,2,4.717926407719209,2050.9032,188.232,122.57,276.1,C9H18O2,5-ethylheptanoic acid,---,269.9943250878571,ML
CCCC(C)C(CC)C(=O)O,2,4.257546407719208,1866.1621,191.846,112.17,279.82,C9H18O2,2-ethyl-3-methylhexanoic acid,74581-94-5,263.93731278068395,ML
CCCC(C)(CC)CC(=O)O,2,4.257546407719208,1866.1621,191.846,112.17,279.82,C9H18O2,3-ethyl-3-methylhexanoic acid,50902-82-4,243.65,Yaw
CC(CC(=O)O)CC(C)(C)C,"1,2",4.811896407719209,2034.6938,191.846,112.17,259.22,C9H18O2,"3,5,5-trimethylhexanoic acid",3302-10-1,203.15,Yaw
CCCCC(CCC)C(=O)O,2,5.102066407719208,2204.5598,185.619,130.09,273.56,C9H18O2,2-propylhexanoic acid,3274-28-0,257.70980019986047,ML
CCCCCCCCOC=O,"1,2",4.796046407719208,1911.6671,200.742,85.57,224.54,C9H18O2,octyl formate,112-32-3,234.05,Yaw
CCCCCCC(C)OC=O,2,4.934016407719208,1908.7808,203.522,76.57,208.48,C9H18O2,1-methylheptyl formate,5451-60-5,234.05,Yaw
CCCCCC(C)COC=O,2,4.934016407719208,1908.7808,203.522,76.57,208.48,C9H18O2,2-methylheptyl formate,---,234.05,Yaw
CCCCC(C)CCOC=O,2,4.934016407719208,1908.7808,203.522,76.57,208.48,C9H18O2,3-methylheptyl formate,---,234.05,Yaw
CCCC(C)CCCOC=O,2,4.934016407719208,1908.7808,203.522,76.57,208.48,C9H18O2,4-methylheptyl formate,---,234.05,Yaw
CCC(C)CCCCOC=O,2,4.934016407719208,1908.7808,203.522,76.57,208.48,C9H18O2,5-methylheptyl formate,---,234.05,Yaw
CC(C)CCCCCOC=O,2,4.934016407719208,1908.7808,203.522,76.57,208.48,C9H18O2,6-methylheptyl formate,---,234.05,Yaw
CCCCCC(C)(C)OC=O,2,4.504546407719209,1755.158,206.302,68.57,211.24,C9H18O2,"1,1-dimethylhexyl formate",---,234.05,Yaw
CCCCC(C)C(C)OC=O,2,4.504546407719209,1755.158,206.302,68.57,211.24,C9H18O2,"1,2-dimethylhexyl formate",---,234.05,Yaw
CCCC(C)CC(C)OC=O,2,4.504546407719209,1755.158,206.302,68.57,211.24,C9H18O2,"1,3-dimethylhexyl formate",---,234.05,Yaw
CCC(C)CCC(C)OC=O,2,4.504546407719209,1755.158,206.302,68.57,211.24,C9H18O2,"1,4-dimethylhexyl formate",---,234.05,Yaw
CC(C)CCCC(C)OC=O,2,4.504546407719209,1755.158,206.302,68.57,211.24,C9H18O2,"1,5-dimethylhexyl formate",---,234.05,Yaw
CCCCCC(CC)OC=O,2,4.668946407719209,1814.0222,205.19,71.77,210.12,C9H18O2,1-ethylhexyl formate,---,234.05,Yaw
CCCCC(CC)COC=O,2,4.668946407719209,1814.0222,205.19,71.77,210.12,C9H18O2,2-ethylhexyl formate,---,234.05,Yaw
CCCC(CC)CCOC=O,2,4.668946407719209,1814.0222,205.19,71.77,210.12,C9H18O2,3-ethylhexyl formate,---,234.05,Yaw
CCC(CC)CCCOC=O,2,4.668946407719209,1814.0222,205.19,71.77,210.12,C9H18O2,4-ethylhexyl formate,---,234.05,Yaw
CCCCCCCOC(C)=O,"1,2",4.698976407719209,1848.7041,202.577,78.39,217.78,C9H18O2,heptyl acetate,112-06-1,222.95,Yaw
CCCCCC(C)OC(C)=O,2,4.643686407719208,1804.9832,205.357,71.29,210.28,C9H18O2,1-methylhexyl acetate,5921-82-4,222.95,Yaw
CCCCC(C)COC(C)=O,2,4.643686407719208,1804.9832,205.357,71.29,210.28,C9H18O2,2-methylhexyl acetate,129664-69-3,222.95,Yaw
CCCC(C)CCOC(C)=O,2,4.643686407719208,1804.9832,205.357,71.29,210.28,C9H18O2,3-methylhexyl acetate,50373-54-1,222.95,Yaw
CCC(C)CCCOC(C)=O,2,4.643686407719208,1804.9832,205.357,71.29,210.28,C9H18O2,4-methylhexyl acetate,---,222.95,Yaw
CC(=O)OCCCCC(C)C,2,4.643686407719208,1804.9832,205.357,71.29,210.28,C9H18O2,5-methylhexyl acetate,90438-79-2,222.95,Yaw
CCCCC(C)(C)OC(C)=O,2,4.252446407719209,1664.7339,208.137,63.29,213.16,C9H18O2,"1,1-dimethylpentyl acetate",34650-24-3,222.95,Yaw
CCCC(C)C(C)OC(C)=O,2,4.252446407719209,1664.7339,208.137,63.29,213.16,C9H18O2,"1,2-dimethylpentyl acetate",---,222.95,Yaw
CCC(C)CC(C)OC(C)=O,2,4.252446407719209,1664.7339,208.137,63.29,213.16,C9H18O2,"1,3-dimethylpentyl acetate",---,222.95,Yaw
CC(=O)OC(C)CCC(C)C,2,4.252446407719209,1664.7339,208.137,63.29,213.16,C9H18O2,"1,4-dimethylpentyl acetate",---,222.95,Yaw
CCCCC(CC)OC(C)=O,2,4.754726407719208,1844.7091,204.634,73.37,209.56,C9H18O2,1-ethylpentyl acetate,5921-83-5,222.95,Yaw
CCCC(CC)COC(C)=O,2,4.402516407719209,1718.5852,207.025,66.49,211.99,C9H18O2,2-ethylpentyl acetate,---,222.95,Yaw
CCC(CC)CCOC(C)=O,2,4.402516407719209,1718.5852,207.025,66.49,211.99,C9H18O2,3-ethylpentyl acetate,---,222.95,Yaw
CCCC(CCC)OC(C)=O,2,4.156956407719209,1628.9672,208.526,61.27,213.93,C9H18O2,1-propylbutyl acetate,5921-84-6,222.95,Yaw
CCCCCCOC(=O)CC,"1,2",4.347586407719208,1702.1874,206.024,67.27,214.63,C9H18O2,hexyl propanoate,2445-76-3,215.65,Yaw
CCCCC(C)OC(=O)CC,2,3.747596407719208,1480.0151,211.584,51.37,217.83,C9H18O2,1-methylpentyl propanoate,---,215.65,Yaw
CCCC(C)COC(=O)CC,2,3.747596407719208,1480.0151,211.584,51.37,217.83,C9H18O2,2-methylpentyl propanoate,---,215.65,Yaw
CCC(=O)OCCC(C)CC,2,3.747596407719208,1480.0151,211.584,51.37,217.83,C9H18O2,3-methylpentyl propanoate,39230-59-6,215.65,Yaw
CCC(=O)OCCCC(C)C,2,3.747596407719208,1480.0151,211.584,51.37,217.83,C9H18O2,4-methylpentyl propanoate,---,215.65,Yaw
CCCC(C)(C)OC(=O)CC,2,3.463256407719209,1377.351,214.364,43.37,221.2,C9H18O2,"1,1-dimethylbutyl propanoate",---,215.65,Yaw
CCC(=O)OC(C)C(C)CC,2,3.463256407719209,1377.351,214.364,43.37,221.2,C9H18O2,"1,2-dimethylbutyl propanoate",---,215.65,Yaw
CCC(=O)OC(C)CC(C)C,2,3.463256407719209,1377.351,214.364,43.37,221.2,C9H18O2,"1,3-dimethylbutyl propanoate",---,215.65,Yaw
CCCC(CC)OC(=O)CC,2,3.573006407719209,1417.0233,213.252,46.57,219.83,C9H18O2,1-ethylbutyl propanoate,---,215.65,Yaw
CCC(=O)OCC(CC)CC,2,3.573006407719209,1417.0233,213.252,46.57,219.83,C9H18O2,2-ethylbutyl propanoate,---,215.65,Yaw
CCCCCOC(=O)CCC,"1,2",4.7790064077192085,1831.479,204.634,70.37,204.36,C9H18O2,pentyl butanoate,540-18-1,200.15,Yaw
CCCC(=O)OC(C)CCC,2,4.194566407719209,1639.0423,207.414,62.37,213.55,C9H18O2,1-methylbutyl butanoate,60415-61-4,200.15,Yaw
CCCC(=O)OCC(C)CC,2,4.245206407719208,1658.8305,207.414,63.37,213.16,C9H18O2,2-methylbutyl butanoate,51115-64-1,200.15,Yaw
CCCC(=O)OCCC(C)C,"1,2",4.5541564077192085,1749.4911,206.302,65.57,205.04,C9H18O2,3-methylbutyl butanoate,106-27-4,200.15,Yaw
CCCC(=O)OC(C)(C)CC,2,3.903096407719208,1536.0006,210.194,55.37,216.23,C9H18O2,"1,1-dimethylpropyl butanoate",2050-00-2,200.15,Yaw
CCCC(=O)OC(C)C(C)C,2,3.903096407719208,1536.0006,210.194,55.37,216.23,C9H18O2,"1,2-dimethylpropyl butanoate",88736-68-9,200.15,Yaw
CCCC(=O)OCC(C)(C)C,2,4.137876407719209,1620.3421,208.248,60.97,214.06,C9H18O2,"2,2-dimethylpropyl butanoate",23361-69-5,200.15,Yaw
CCCC(=O)OC(CC)CC,2,4.395176407719209,1712.5441,206.302,66.57,211.99,C9H18O2,1-ethylpropyl butanoate,---,200.15,Yaw
CCCCCOC(=O)C(C)C,2,4.245206407719208,1658.8305,207.414,63.37,213.16,C9H18O2,pentyl isobutanoate,2445-72-9,200.15,Yaw
CCCC(C)OC(=O)C(C)C,2,3.903096407719208,1536.0006,210.194,55.37,216.23,C9H18O2,1-methylbutyl isobutanoate,---,200.15,Yaw
CCC(C)COC(=O)C(C)C,2,3.903096407719208,1536.0006,210.194,55.37,216.23,C9H18O2,2-methylbutyl isobutanoate,2445-69-4,200.15,Yaw
CC(C)CCOC(=O)C(C)C,"1,2",4.198006407719209,1598.7186,211.028,51.97,199.22,C9H18O2,3-methylbutyl isobutanoate,2050-01-3,200.15,Yaw
CCC(C)(C)OC(=O)C(C)C,2,3.6012464077192083,1427.2231,212.974,47.37,219.49,C9H18O2,"1,1-dimethylpropyl isobutanoate",---,200.15,Yaw
CC(C)C(=O)OC(C)C(C)C,2,3.6012464077192083,1427.2231,212.974,47.37,219.49,C9H18O2,"1,2-dimethylpropyl isobutanoate",---,200.15,Yaw
CCC(CC)OC(=O)C(C)C,2,4.034676407719209,1583.2949,209.082,58.57,214.98,C9H18O2,1-ethylpropyl isobutanoate,---,200.15,Yaw
CCCCOC(=O)CCCC,"1,2",4.4995164077192085,1759.6146,204.217,71.57,214.89,C9H18O2,butyl pentanoate,591-68-4,180.35,Yaw
CCCCC(=O)OC(C)CC,2,4.176696407719208,1632.6406,207.553,61.97,213.7,C9H18O2,1-methylpropyl pentanoate,116836-32-9,180.35,Yaw
CCCCC(=O)OCC(C)C,2,4.341886407719208,1691.7799,206.302,65.57,212.37,C9H18O2,2-methylpropyl pentanoate,10588-10-0,180.35,Yaw
CCCCC(=O)OC(C)(C)C,2,4.034676407719209,1583.2949,209.082,58.57,214.98,C9H18O2,"1,1-dimethylethyl pentanoate",---,180.35,Yaw
CCCCOC(=O)CC(C)C,2,4.245206407719208,1658.8305,207.414,63.37,213.16,C9H18O2,butyl isopentanoate,109-19-3,180.35,Yaw
CCC(C)OC(=O)CC(C)C,2,3.887116407719208,1530.2499,210.333,54.97,216.39,C9H18O2,1-methylpropyl isopentanoate,---,180.35,Yaw
CC(C)COC(=O)CC(C)C,2,4.021026407719209,1576.8201,208.804,58.37,215.07,C9H18O2,2-methylpropyl isopentanoate,589-59-3,180.35,Yaw
CC(C)CC(=O)OC(C)(C)C,2,3.7176264077192087,1469.2104,211.862,50.57,218.16,C9H18O2,"1,1-dimethylethyl isopentanoate",---,180.35,Yaw
CCCCOC(=O)C(C)CC,2,4.341886407719208,1691.7799,206.302,65.57,212.37,C9H18O2,butyl sec-pentanoate,15706-73-7,180.35,Yaw
CCC(C)OC(=O)C(C)CC,2,3.587086407719209,1422.1088,213.113,46.97,219.66,C9H18O2,1-methylpropyl tert-pentanoate,---,180.35,Yaw
CCC(C)C(=O)OCC(C)C,2,3.7176264077192087,1469.2104,211.862,50.57,218.16,C9H18O2,2-methylpropyl tert-pentanoate,---,180.35,Yaw
CCC(C)C(=O)OC(C)(C)C,2,3.436606407719209,1367.7051,214.642,42.57,221.55,C9H18O2,"1,1-dimethylethyl tert-pentanoate",---,180.35,Yaw
CCCCCC(=O)OCCC,2,4.661926407719209,1806.1117,204.078,71.97,210.08,C9H18O2,propyl hexanoate,626-77-7,204.45,Yaw
CCCCCCC(=O)OCC,2,4.661926407719209,1806.1117,204.078,71.97,210.08,C9H18O2,ethyl heptanoate,106-30-9,207.05,Yaw
CCCC(C)CC(=O)OCC,2,4.267236407719208,1665.0668,206.858,63.97,212.95,C9H18O2,ethyl 3-methylhexanoate,41692-47-1,207.05,Yaw
CCOC(=O)CCC(C)CC,2,4.379976407719209,1705.4035,206.024,66.37,212.07,C9H18O2,ethyl 4-methylhexanoate,1561-10-0,207.05,Yaw
CCCCCCCC(=O)OC,"1,2",4.454336407719208,1768.318,202.438,76.69,223.32,C9H18O2,methyl octanoate,111-11-5,233.15,Yaw
C1CCCCSCCCC1,3,3.810676407719209,1665.3598,193.59,99.01,280.92,C9H18S,thiacyclodecane,6048-83-5,297.6933593797855,ML
CCCCCCCCCBr,"1,2",5.667726407719208,2241.9552,194.515,102.49,223.24,C9H19Br,1-bromononane,693-58-3,244.15,Yaw
CCCCCCCC(C)Br,2,4.650606407719208,1905.7714,197.295,94.49,240.86,C9H19Br,2-bromononane,---,242.23954864165103,ML
CCCCCCC(Br)CC,2,4.650606407719208,1905.7714,197.295,94.49,240.86,C9H19Br,3-bromononane,---,241.54489502683762,ML
CCCCCC(Br)CCC,2,4.650606407719208,1905.7714,197.295,94.49,240.86,C9H19Br,4-bromononane,---,244.90854973903967,ML
CCCCC(Br)CCCC,2,4.650606407719208,1905.7714,197.295,94.49,240.86,C9H19Br,5-bromononane,---,243.93548294710612,ML
CCCCCCC(C)CBr,2,4.650606407719208,1905.7714,197.295,94.49,240.86,C9H19Br,1-bromo-2-methyloctane,---,241.23445615758905,ML
CCCCCC(C)CCBr,2,4.650606407719208,1905.7714,197.295,94.49,240.86,C9H19Br,1-bromo-3-methyloctane,---,242.2244575474864,ML
CCCCC(C)CCCBr,2,4.650606407719208,1905.7714,197.295,94.49,240.86,C9H19Br,1-bromo-4-methyloctane,---,243.0272786461094,ML
CCCC(C)CCCCBr,2,4.650606407719208,1905.7714,197.295,94.49,240.86,C9H19Br,1-bromo-5-methyloctane,---,242.8003179608523,ML
CCC(C)CCCCCBr,2,4.650606407719208,1905.7714,197.295,94.49,240.86,C9H19Br,1-bromo-6-methyloctane,---,241.9480865497404,ML
CC(C)CCCCCCBr,2,4.650606407719208,1905.7714,197.295,94.49,240.86,C9H19Br,1-bromo-7-methyloctane,---,241.558801735351,ML
CCCCCCC(C)(C)Br,2,4.277426407719209,1764.7363,200.075,86.49,243.73,C9H19Br,2-bromo-2-methyloctane,---,243.21161960655613,ML
CCCCCC(C)C(C)Br,2,4.277426407719209,1764.7363,200.075,86.49,243.73,C9H19Br,2-bromo-3-methyloctane,---,239.4653534506635,ML
CCCCC(C)CC(C)Br,2,4.277426407719209,1764.7363,200.075,86.49,243.73,C9H19Br,2-bromo-4-methyloctane,---,240.83823716073843,ML
CCCC(C)CCC(C)Br,2,4.277426407719209,1764.7363,200.075,86.49,243.73,C9H19Br,2-bromo-5-methyloctane,---,239.77316698010318,ML
CCC(C)CCCC(C)Br,2,4.277426407719209,1764.7363,200.075,86.49,243.73,C9H19Br,2-bromo-6-methyloctane,---,239.5184369122123,ML
CC(C)CCCCC(C)Br,2,4.277426407719209,1764.7363,200.075,86.49,243.73,C9H19Br,2-bromo-7-methyloctane,---,239.26749128189132,ML
CCCCCC(Br)C(C)C,2,4.277426407719209,1764.7363,200.075,86.49,243.73,C9H19Br,3-bromo-2-methyloctane,---,241.8661587193363,ML
CCCCCC(C)(Br)CC,2,4.277426407719209,1764.7363,200.075,86.49,243.73,C9H19Br,3-bromo-3-methyloctane,---,239.1108274161761,ML
CCCCC(C)C(Br)CC,2,4.277426407719209,1764.7363,200.075,86.49,243.73,C9H19Br,3-bromo-4-methyloctane,---,240.0326064114083,ML
CCCC(C)CC(Br)CC,2,4.277426407719209,1764.7363,200.075,86.49,243.73,C9H19Br,3-bromo-5-methyloctane,---,240.68802784746546,ML
CCC(C)CCC(Br)CC,2,4.277426407719209,1764.7363,200.075,86.49,243.73,C9H19Br,3-bromo-6-methyloctane,---,239.05349386160114,ML
CCC(Br)CCCC(C)C,2,4.277426407719209,1764.7363,200.075,86.49,243.73,C9H19Br,3-bromo-7-methyloctane,---,239.27029858203392,ML
CCCCCCCCCCl,"1,2",4.819356407719209,1940.096,199.013,90.55,230.37,C9H19Cl,1-chlorononane,2473-01-0,233.75,Yaw
CCCCCCCC(C)Cl,2,4.192756407719209,1704.3295,203.244,77.37,234.69,C9H19Cl,2-chlorononane,---,233.75,Yaw
CCCCCC(Cl)CCC,2,4.192756407719209,1704.3295,203.244,77.37,234.69,C9H19Cl,4-chlorononane,---,233.75,Yaw
CCCCC(Cl)CCCC,2,4.192756407719209,1704.3295,203.244,77.37,234.69,C9H19Cl,5-chlorononane,28123-70-8,233.75,Yaw
CCCCCCC(C)CCl,2,4.370636407719209,1770.5613,201.854,81.37,233.22,C9H19Cl,1-chloro-2-methyloctane,---,233.75,Yaw
CCCCCC(C)CCCl,2,4.370636407719209,1770.5613,201.854,81.37,233.22,C9H19Cl,1-chloro-3-methyloctane,---,233.75,Yaw
CCCCC(C)CCCCl,2,4.370636407719209,1770.5613,201.854,81.37,233.22,C9H19Cl,1-chloro-4-methyloctane,---,233.75,Yaw
CCCC(C)CCCCCl,2,4.370636407719209,1770.5613,201.854,81.37,233.22,C9H19Cl,1-chloro-5-methyloctane,---,233.75,Yaw
CCC(C)CCCCCCl,2,4.370636407719209,1770.5613,201.854,81.37,233.22,C9H19Cl,1-chloro-6-methyloctane,---,233.75,Yaw
CC(C)CCCCCCCl,2,4.370636407719209,1770.5613,201.854,81.37,233.22,C9H19Cl,1-chloro-7-methyloctane,---,233.75,Yaw
CCCCCCC(C)(C)Cl,2,4.025826407719209,1642.0722,204.634,73.37,236.21,C9H19Cl,2-chloro-2-methyloctane,---,233.75,Yaw
CCCCCC(C)C(C)Cl,2,4.025826407719209,1642.0722,204.634,73.37,236.21,C9H19Cl,2-chloro-3-methyloctane,---,233.75,Yaw
CCCCC(C)CC(C)Cl,2,4.025826407719209,1642.0722,204.634,73.37,236.21,C9H19Cl,2-chloro-4-methyloctane,---,233.75,Yaw
CCCC(C)CCC(C)Cl,2,4.025826407719209,1642.0722,204.634,73.37,236.21,C9H19Cl,2-chloro-5-methyloctane,---,233.75,Yaw
CCC(C)CCCC(C)Cl,2,4.025826407719209,1642.0722,204.634,73.37,236.21,C9H19Cl,2-chloro-6-methyloctane,---,233.75,Yaw
CC(C)CCCCC(C)Cl,2,4.025826407719209,1642.0722,204.634,73.37,236.21,C9H19Cl,2-chloro-7-methyloctane,---,233.75,Yaw
CCCCCC(Cl)C(C)C,2,4.025826407719209,1642.0722,204.634,73.37,236.21,C9H19Cl,3-chloro-2-methyloctane,---,233.75,Yaw
CCCCCC(C)(Cl)CC,2,4.025826407719209,1642.0722,204.634,73.37,236.21,C9H19Cl,3-chloro-3-methyloctane,28320-88-9,233.75,Yaw
CCCCC(C)C(Cl)CC,2,4.025826407719209,1642.0722,204.634,73.37,236.21,C9H19Cl,3-chloro-4-methyloctane,---,233.75,Yaw
CCCC(C)CC(Cl)CC,2,4.025826407719209,1642.0722,204.634,73.37,236.21,C9H19Cl,3-chloro-5-methyloctane,---,233.75,Yaw
CCC(C)CCC(Cl)CC,2,4.025826407719209,1642.0722,204.634,73.37,236.21,C9H19Cl,3-chloro-6-methyloctane,---,233.75,Yaw
CCC(Cl)CCCC(C)C,2,4.025826407719209,1642.0722,204.634,73.37,236.21,C9H19Cl,3-chloro-7-methyloctane,---,233.75,Yaw
CCC(Cl)(CC)C(C)(C)C,2,3.930526407719209,1606.4756,205.468,70.97,237.15,C9H19Cl,"3-chloro-3-ethyl-2,2-dimethylpentane",86661-53-2,233.75,Yaw
CCCCC(Cl)(CC)CC,2,4.192756407719209,1704.3295,203.244,77.37,234.69,C9H19Cl,3-chloro-3-ethylheptane,28320-89-0,233.75,Yaw
CCCCC(C)(Cl)CCC,2,4.025826407719209,1642.0722,204.634,73.37,236.21,C9H19Cl,4-chloro-4-methyloctane,36903-89-6,233.75,Yaw
CCCC(C)(Cl)C(C)(C)C,2,3.779136407719209,1549.8539,206.858,66.97,238.74,C9H19Cl,"3-chloro-2,2,3-trimethylhexane",102449-95-6,233.75,Yaw
CCCCCCCCCF,"1,2",4.270816407719209,1615.1984,210.194,52.37,196.68,C9H19F,1-fluorononane,463-18-3,233.15,Yaw
CCCCCCCC(C)F,2,3.7267764077192087,1443.0819,212.974,44.37,208.27,C9H19F,2-fluorononane,---,212.88735613776655,ML
CCCCCCC(F)CC,2,3.7267764077192087,1443.0819,212.974,44.37,208.27,C9H19F,3-fluorononane,---,212.77228641237215,ML
CCCCCC(F)CCC,2,3.7267764077192087,1443.0819,212.974,44.37,208.27,C9H19F,4-fluorononane,---,212.5814259610329,ML
CCCCC(F)CCCC,2,3.7267764077192087,1443.0819,212.974,44.37,208.27,C9H19F,5-fluorononane,---,213.0865149853105,ML
CCCCCCC(C)CF,2,3.7267764077192087,1443.0819,212.974,44.37,208.27,C9H19F,1-fluoro-2-methyloctane,---,212.98323547909968,ML
CCCCCC(C)CCF,2,3.7267764077192087,1443.0819,212.974,44.37,208.27,C9H19F,1-fluoro-3-methyloctane,---,212.20445629920914,ML
CCCCC(C)CCCF,2,3.7267764077192087,1443.0819,212.974,44.37,208.27,C9H19F,1-fluoro-4-methyloctane,---,213.4307420587104,ML
CCCC(C)CCCCF,2,3.7267764077192087,1443.0819,212.974,44.37,208.27,C9H19F,1-fluoro-5-methyloctane,---,214.0221646898542,ML
CCC(C)CCCCCF,2,3.7267764077192087,1443.0819,212.974,44.37,208.27,C9H19F,1-fluoro-6-methyloctane,---,213.52858606131267,ML
CC(C)CCCCCCF,2,3.7267764077192087,1443.0819,212.974,44.37,208.27,C9H19F,1-fluoro-7-methyloctane,---,212.9002028223317,ML
CCCCCCC(C)(C)F,2,3.439326407719209,1341.3375,215.754,36.37,211.65,C9H19F,2-fluoro-2-methyloctane,---,213.2510097771271,ML
CCCCCC(C)C(C)F,2,3.439326407719209,1341.3375,215.754,36.37,211.65,C9H19F,2-fluoro-3-methyloctane,---,206.71655207048653,ML
CCCCC(C)CC(C)F,2,3.439326407719209,1341.3375,215.754,36.37,211.65,C9H19F,2-fluoro-4-methyloctane,---,210.64304503553876,ML
CCCC(C)CCC(C)F,2,3.439326407719209,1341.3375,215.754,36.37,211.65,C9H19F,2-fluoro-5-methyloctane,---,209.71303710186376,ML
CCC(C)CCCC(C)F,2,3.439326407719209,1341.3375,215.754,36.37,211.65,C9H19F,2-fluoro-6-methyloctane,---,209.44044697657102,ML
CC(C)CCCCC(C)F,2,3.439326407719209,1341.3375,215.754,36.37,211.65,C9H19F,2-fluoro-7-methyloctane,---,209.23896943142145,ML
CCCCCC(F)C(C)C,2,3.439326407719209,1341.3375,215.754,36.37,211.65,C9H19F,3-fluoro-2-methyloctane,---,210.0643187894915,ML
CCCCCC(C)(F)CC,2,3.439326407719209,1341.3375,215.754,36.37,211.65,C9H19F,3-fluoro-3-methyloctane,---,209.44857617085984,ML
CCCCC(C)C(F)CC,2,3.439326407719209,1341.3375,215.754,36.37,211.65,C9H19F,3-fluoro-4-methyloctane,---,207.7039946337737,ML
CCCC(C)CC(F)CC,2,3.439326407719209,1341.3375,215.754,36.37,211.65,C9H19F,3-fluoro-5-methyloctane,---,211.0810700179696,ML
CCC(C)CCC(F)CC,2,3.439326407719209,1341.3375,215.754,36.37,211.65,C9H19F,3-fluoro-6-methyloctane,---,208.79430749879907,ML
CCC(F)CCCC(C)C,2,3.439326407719209,1341.3375,215.754,36.37,211.65,C9H19F,3-fluoro-7-methyloctane,---,209.56478734349264,ML
CCCCCCCCCI,2,5.029796407719209,2103.0656,187.954,116.37,256.78,C9H19I,1-iodononane,4282-42-2,253.15,Yaw
CCCCCCCC(C)I,2,4.618816407719208,1944.0666,190.734,108.37,259.51,C9H19I,2-iodononane,---,252.4077460206167,ML
CCCCCCC(I)CC,2,4.618816407719208,1944.0666,190.734,108.37,259.51,C9H19I,3-iodononane,---,251.08432244613286,ML