smiles,code,A [log10(atm)],B [C],C [C],TMIN [C],TMAX [C],FORMULA,NAME,CAS No,mp [K],mp_type
C=CC(O)CC(C)C,2,4.1131364077192085,1606.5709,211.862,26.0,209.58,C7H14O,5-methyl-1-hexen-3-ol,4798-46-3,299.15,Yaw
C=CCCC(O)CC,2,3.979326407719209,1559.2855,213.113,52.97,210.8,C7H14O,6-hepten-3-ol,19781-77-2,299.15,Yaw
C=CC(O)CCCC,2,3.960746407719209,1552.0052,213.113,26.0,210.96,C7H14O,1-hepten-3-ol,4938-52-7,299.15,Yaw
C=CCC(O)CCC,2,3.960746407719209,1552.0052,213.113,26.0,210.96,C7H14O,1-hepten-4-ol,3521-91-3,299.15,Yaw
C=COCCC(C)C,2,4.224686407719209,1472.3972,224.789,16.37,150.47,C7H14O,isopentyl vinyl ether,39782-38-2,179.91615458660533,ML
CCCC1CCCO1,2,4.511676407719208,1588.0619,218.256,30.17,158.9,C7H14O,tetrahydro-2-propylfuran,3208-22-8,189.60183949565757,ML
C=COC(C)(C)CC,2,3.972826407719209,1391.798,226.596,11.17,152.45,C7H14O,tert-pentyl vinyl ether,29281-39-8,170.69767637269524,ML
C=CCOCCCC,2,6.273586407719209,2120.1802,214.22,45.78,140.77,C7H14O,1-(2-propenyloxy)butane,3739-64-8,189.1104041662915,ML
CCCCCCC(=O)O,"1,2",4.494196407719208,1668.505,149.408,112.32,248.5,C7H14O2,heptanoic acid,111-14-8,265.83,Yaw
CCCCC(C)C(=O)O,2,4.854566407719209,1972.1992,196.155,96.66,236.96,C7H14O2,2-methylhexanoic acid,22160-12-9,217.38,Yaw
CCCC(C)CC(=O)O,2,4.9329564077192085,2007.4759,196.85,97.77,236.55,C7H14O2,3-methylhexanoic acid,3780-58-3,217.38,Yaw
CCC(C)CCC(=O)O,2,5.136916407719209,2084.0509,195.599,101.37,235.36,C7H14O2,4-methylhexanoic acid,---,193.15,Yaw
CC(C)CCCC(=O)O,"1,2",4.943836407719209,2021.3671,196.016,100.17,239.36,C7H14O2,5-methylhexanoic acid,628-46-6,217.38,Yaw
CCCC(C)(C)C(=O)O,"1,2",5.059706407719209,2006.7768,199.769,89.37,221.94,C7H14O2,"2,2-dimethylpentanoic acid",1185-39-3,217.38,Yaw
CCC(C)C(C)C(=O)O,2,4.504356407719208,1846.2041,199.769,89.37,239.46,C7H14O2,"2,3-dimethylpentanoic acid",---,252.57119164992858,ML
CC(C)CC(C)C(=O)O,2,4.504356407719208,1846.2041,199.769,89.37,239.46,C7H14O2,"2,4-dimethylpentanoic acid",---,251.8126912466013,ML
CC(C)(C)CCC(=O)O,2,4.504356407719208,1846.2041,199.769,89.37,239.46,C7H14O2,"4,4-dimethylpentanoic acid",1118-47-4,276.90088422290825,ML
CCCC(CC)C(=O)O,2,4.575996407719209,1867.0416,197.907,91.25,238.83,C7H14O2,2-ethylpentanoic acid,20225-24-5,244.4333783644337,ML
CCC(CC)CC(=O)O,2,4.504356407719208,1846.2041,199.769,89.37,239.46,C7H14O2,3-ethylpentanoic acid,58888-87-2,247.7990025846809,ML
CCC(C)(CC)C(=O)O,2,4.552416407719209,1860.2072,198.518,90.64,239.03,C7H14O2,2-ethyl-2-methylbutanoic acid,19889-37-3,258.8835856550898,ML
CCCCCCOC=O,"1,2",4.786446407719208,1755.7851,212.974,50.37,178.47,C7H14O2,hexyl formate,629-33-4,210.53,Yaw
CCCCC(C)OC=O,2,4.8592664077192085,1733.0396,215.754,41.37,164.44,C7H14O2,1-methylpentyl formate,---,210.53,Yaw
CCCC(C)COC=O,2,4.8592664077192085,1733.0396,215.754,41.37,164.44,C7H14O2,2-methylpentyl formate,---,210.53,Yaw
CCC(C)CCOC=O,2,4.8592664077192085,1733.0396,215.754,41.37,164.44,C7H14O2,3-methylpentyl formate,---,210.53,Yaw
CC(C)CCCOC=O,2,4.8592664077192085,1733.0396,215.754,41.37,164.44,C7H14O2,4-methylpentyl formate,---,210.53,Yaw
CCCC(C)(C)OC=O,2,4.406416407719209,1583.7796,218.534,33.37,167.25,C7H14O2,"1,1-dimethylbutyl formate",---,210.53,Yaw
CCC(C)C(C)OC=O,2,4.406416407719209,1583.7796,218.534,33.37,167.25,C7H14O2,"1,2-dimethylbutyl formate",---,210.53,Yaw
CC(C)CC(C)OC=O,2,4.406416407719209,1583.7796,218.534,33.37,167.25,C7H14O2,"1,3-dimethylbutyl formate",5332-86-5,210.53,Yaw
CCCC(CC)OC=O,2,4.579226407719209,1640.7993,217.422,36.57,166.1,C7H14O2,1-ethylbutyl formate,---,210.53,Yaw
CCC(CC)COC=O,2,4.579226407719209,1640.7993,217.422,36.57,166.1,C7H14O2,2-ethylbutyl formate,---,210.53,Yaw
CCCCCOC(C)=O,"1,2",4.662966407719209,1686.9236,214.92,42.87,171.82,C7H14O2,pentyl acetate,628-63-7,202.35,Yaw
CCCC(C)OC(C)=O,"1,2",4.521336407719208,1600.2837,219.09,30.87,160.1,C7H14O2,1-methylbutyl acetate,626-38-0,198.5,Yaw
CCC(C)COC(C)=O,"1,2",4.569856407719208,1635.9812,217.144,36.47,166.1,C7H14O2,2-methylbutyl acetate,624-41-9,198.5,Yaw
CC(=O)OCCC(C)C,"1,2",4.660096407719209,1665.6972,216.588,38.07,165.53,C7H14O2,3-methylbutyl acetate,123-92-2,194.65,Yaw
CCC(C)(C)OC(C)=O,"1,2",4.6207864077192085,1594.5963,221.592,23.67,147.55,C7H14O2,"1,1-dimethylpropyl acetate",625-16-1,198.5,Yaw
CC(=O)OC(C)C(C)C,2,4.098786407719208,1480.6158,220.341,27.27,169.52,C7H14O2,"1,2-dimethylpropyl acetate",5343-96-4,198.5,Yaw
CC(=O)OCC(C)(C)C,2,4.080096407719209,1474.4336,220.48,26.87,169.68,C7H14O2,"2,2-dimethylpropyl acetate",926-41-0,198.5,Yaw
CCC(CC)OC(C)=O,"1,2",4.520586407719208,1596.7555,219.368,30.07,159.05,C7H14O2,1-ethylpropyl acetate,620-11-1,198.5,Yaw
CCCCOC(=O)CC,"1,2",4.505136407719209,1628.9395,215.724,39.36,171.74,C7H14O2,butyl propanoate,590-01-2,183.63,Yaw
CCC(=O)OC(C)CC,"1,2",4.525746407719208,1593.698,219.09,29.67,158.14,C7H14O2,1-methylpropyl propanoate,591-34-4,192.69,Yaw
CCC(=O)OCC(C)C,"1,2",4.559666407719209,1617.2633,217.839,33.27,161.92,C7H14O2,2-methylpropyl propanoate,540-42-1,201.75,Yaw
CCC(=O)OC(C)(C)C,2,4.004966407719208,1447.8379,220.619,25.37,170.27,C7H14O2,"1,1-dimethylethyl propanoate",20487-40-5,192.69,Yaw
CCCOC(=O)CCC,"1,2",4.474246407719209,1607.3464,216.394,36.53,168.76,C7H14O2,propyl butanoate,105-66-8,177.95,Yaw
CCCC(=O)OC(C)C,"1,2",4.468346407719209,1565.418,219.785,26.77,155.86,C7H14O2,1-methylethyl butanoate,638-11-9,177.95,Yaw
CCCOC(=O)C(C)C,"1,2",4.541906407719209,1600.3179,218.395,30.77,158.96,C7H14O2,propylisobutanoate,644-49-5,177.95,Yaw
CC(C)OC(=O)C(C)C,"1,2",4.459856407719209,1530.8906,222.51,18.93,145.6,C7H14O2,1-methylethyl isobutanoate,617-50-5,177.95,Yaw
CCCCC(=O)OCC,"1,2",4.669006407719209,1668.2302,215.449,39.25,166.47,C7H14O2,ethyl pentanoate,539-82-2,181.95,Yaw
CCOC(=O)CC(C)C,"1,2",4.572136407719209,1603.8094,218.729,29.81,156.77,C7H14O2,ethyl isopentanoate,108-64-5,174.15,Yaw
CCOC(=O)C(C)CC,"1,2",4.459546407719209,1570.6965,219.16,28.57,158.55,C7H14O2,ethyl sec-pentanoate,7452-79-1,179.92,Yaw
CCOC(=O)C(C)(C)C,"1,2",4.475486407719209,1527.0315,223.149,17.09,142.65,C7H14O2,ethyl tert-pentanoate,3938-95-2,183.65,Yaw
CCCCCC(=O)OC,"1,2",4.471436407719208,1629.1823,214.503,41.97,176.15,C7H14O2,methyl hexanoate,106-70-7,202.15,Yaw
CCC(CC)C(=O)OC,2,4.275586407719208,1535.5676,218.256,31.17,168.09,C7H14O2,methyl 2-ethylbutanoate,816-11-5,202.15,Yaw
COC(C)(C)CC(C)=O,"1,2",4.081536407719208,1449.2931,195.085,43.0,188.27,C7H14O2,4-methoxy-4-methyl-2-pentanone,107-70-0,238.78456166110382,ML
CCOCCC(=O)OCC,"1,2",4.503696407719208,1710.719,209.847,58.1,197.21,C7H14O3,ethyl-3-ethoxypropionate,763-69-9,224.24605981167193,ML
C1CCCSCCC1,3,3.8886364077192086,1564.7116,201.38,69.83,234.76,C7H14S,thiacyclooctane,6572-99-2,280.6884129759432,ML
CCC1CCCCS1,2,3.069976407719208,1241.2249,213.311,37.4,234.96,C7H14S,2-ethylthiacyclohexane,1613-52-1,208.25296727223767,ML
CCC1CCCSC1,2,3.069976407719208,1241.2249,213.311,37.4,234.96,C7H14S,3-ethylthiacyclohexane,61568-48-7,208.6692327658311,ML
CCC1CCSCC1,2,3.069976407719208,1241.2249,213.311,37.4,234.96,C7H14S,4-ethylthiacyclohexane,40324-31-0,214.69955185399726,ML
CC1(C)CCCCS1,2,3.0753464077192083,1243.1942,213.244,37.59,234.86,C7H14S,"2,2-dimethylthiacyclohexane",---,209.45207298996266,ML
CC1(C)CCCSC1,2,3.0753464077192083,1243.1942,213.244,37.59,234.86,C7H14S,"3,3-dimethylthiacyclohexane",---,200.5907642533773,ML
CC1(C)CCSCC1,2,3.0753464077192083,1243.1942,213.244,37.59,234.86,C7H14S,"4,4-dimethylthiacyclohexane",---,239.84105091783024,ML
C=CCSC(C)(C)C,3,1.3177664077192084,331.164,70.274,33.26,255.44,C7H14S,allyl tert-butyl sulfide,37850-75-2,197.48436787309174,ML
CCCCCCCBr,"1,2",4.633246407719208,1790.1956,206.33,68.49,206.9,C7H15Br,1-bromoheptane,629-04-9,217.05,Yaw
CCCCCC(C)Br,"1,2",4.682576407719209,1759.5563,209.916,47.0,191.67,C7H15Br,2-bromoheptane,1974-04-5,320.15,Yaw
CCCCC(Br)CC,2,4.5016264077192085,1711.0459,209.916,58.17,197.42,C7H15Br,3-bromoheptane,---,214.83778144662574,ML
CCCC(Br)CCC,2,4.304096407719209,1641.9475,211.306,54.17,198.87,C7H15Br,4-bromoheptane,998-93-6,268.6,Yaw
CCCCC(C)CBr,2,4.622796407719209,1753.3752,209.11,60.49,196.6,C7H15Br,1-bromo-2-methylhexane,---,212.31597860426186,ML
CCCC(C)CCBr,2,4.622796407719209,1753.3752,209.11,60.49,196.6,C7H15Br,1-bromo-3-methylhexane,---,211.67084499575438,ML
CCC(C)CCCBr,2,4.622796407719209,1753.3752,209.11,60.49,196.6,C7H15Br,1-bromo-4-methylhexane,---,211.1001188862364,ML
CC(C)CCCCBr,2,4.622796407719209,1753.3752,209.11,60.49,196.6,C7H15Br,1-bromo-5-methylhexane,---,210.7246508499768,ML
CCCCC(C)(C)Br,2,4.225136407719209,1614.2923,211.89,52.49,199.49,C7H15Br,2-bromo-2-methylhexane,---,219.6619400130243,ML
CCCC(C)C(C)Br,2,4.225136407719209,1614.2923,211.89,52.49,199.49,C7H15Br,2-bromo-3-methylhexane,---,214.0964746462948,ML
CCC(C)CC(C)Br,2,4.225136407719209,1614.2923,211.89,52.49,199.49,C7H15Br,2-bromo-4-methylhexane,---,211.49555454116793,ML
CC(C)CCC(C)Br,2,4.225136407719209,1614.2923,211.89,52.49,199.49,C7H15Br,2-bromo-5-methylhexane,---,212.72628449234682,ML
CCCC(Br)C(C)C,2,4.225136407719209,1614.2923,211.89,52.49,199.49,C7H15Br,3-bromo-2-methylhexane,---,218.48502119725595,ML
CCCC(C)(Br)CC,2,4.225136407719209,1614.2923,211.89,52.49,199.49,C7H15Br,3-bromo-3-methylhexane,---,219.33673971043046,ML
CCC(C)C(Br)CC,2,4.225136407719209,1614.2923,211.89,52.49,199.49,C7H15Br,3-bromo-4-methylhexane,---,216.3380183027754,ML
CCC(Br)CC(C)C,2,4.225136407719209,1614.2923,211.89,52.49,199.49,C7H15Br,3-bromo-5-methylhexane,---,211.58215495313024,ML
CCC(C)C(C)(C)Br,2,4.225136407719209,1614.2923,211.89,52.49,199.49,C7H15Br,"2-bromo-2,3-dimethylpentane",---,227.06862810621428,ML
CC(C)CC(C)(C)Br,2,4.300286407719208,1640.6129,211.334,54.09,198.9,C7H15Br,"2-bromo-2,4-dimethylpentane",---,223.5006161772468,ML
CCC(C)(Br)C(C)C,2,4.300286407719208,1640.6129,211.334,54.09,198.9,C7H15Br,"3-bromo-2,3-dimethylpentane",---,219.1989281021453,ML
CC(Br)CC(C)(C)C,2,4.300286407719208,1640.6129,211.334,54.09,198.9,C7H15Br,"4-bromo-2,2-dimethylpentane",---,218.2376267977135,ML
CCCCCCCCl,"1,2",4.7104064077192085,1747.8023,212.001,53.17,184.38,C7H15Cl,1-chloroheptane,629-06-1,203.65,Yaw
CCCCCC(C)Cl,2,4.458276407719208,1638.2061,215.059,43.37,179.0,C7H15Cl,2-chloroheptane,1001-89-4,203.65,Yaw
CCCCC(Cl)CC,2,4.371826407719209,1610.6949,216.032,41.57,179.64,C7H15Cl,3-chloroheptane,999-52-0,203.65,Yaw
CCCC(Cl)CCC,2,4.371826407719209,1610.6949,216.032,41.57,179.64,C7H15Cl,4-chloroheptane,998-95-8,203.65,Yaw
CCCCC(C)CCl,2,4.608146407719208,1688.7915,214.086,46.17,178.01,C7H15Cl,1-chloro-2-methylhexane,---,203.65,Yaw
CCCC(C)CCCl,2,4.669806407719209,1711.3916,214.086,47.17,177.65,C7H15Cl,1-chloro-3-methylhexane,101257-63-0,203.65,Yaw
CCC(C)CCCCl,2,4.608146407719208,1688.7915,214.086,46.17,178.01,C7H15Cl,1-chloro-4-methylhexane,---,203.65,Yaw
CC(C)CCCCCl,2,4.608146407719208,1688.7915,214.086,46.17,178.01,C7H15Cl,1-chloro-5-methylhexane,---,203.65,Yaw
CCCCC(C)(C)Cl,2,4.069596407719208,1506.7002,217.839,35.37,181.97,C7H15Cl,2-chloro-2-methylhexane,4398-65-6,203.65,Yaw
CCCC(C)C(C)Cl,2,4.069596407719208,1506.7002,217.839,35.37,181.97,C7H15Cl,2-chloro-3-methylhexane,---,203.65,Yaw
CCC(C)CC(C)Cl,2,4.069596407719208,1506.7002,217.839,35.37,181.97,C7H15Cl,2-chloro-4-methylhexane,---,203.65,Yaw
CC(C)CCC(C)Cl,2,4.069596407719208,1506.7002,217.839,35.37,181.97,C7H15Cl,2-chloro-5-methylhexane,58766-17-9,203.65,Yaw
CCCC(Cl)C(C)C,2,3.980596407719209,1476.5143,218.534,33.37,182.74,C7H15Cl,3-chloro-2-methylhexane,---,203.65,Yaw
CCCC(C)(Cl)CC,2,4.030256407719208,1494.9357,218.534,34.37,182.34,C7H15Cl,3-chloro-3-methylhexane,43197-78-0,203.65,Yaw
CCC(C)C(Cl)CC,2,3.980596407719209,1476.5143,218.534,33.37,182.74,C7H15Cl,3-chloro-4-methylhexane,---,203.65,Yaw
CCC(Cl)CC(C)C,2,3.980596407719209,1476.5143,218.534,33.37,182.74,C7H15Cl,3-chloro-5-methylhexane,---,203.65,Yaw
CCC(C)C(C)(C)Cl,2,3.7465764077192087,1397.0023,220.48,27.77,184.97,C7H15Cl,"2-chloro-2,3-dimethylpentane",59889-45-1,203.65,Yaw
CC(C)CC(C)(C)Cl,2,3.792096407719209,1413.9757,220.48,28.77,184.55,C7H15Cl,"2-chloro-2,4-dimethylpentane",35951-33-8,203.65,Yaw
CCC(C)(Cl)C(C)C,2,3.7465764077192087,1397.0023,220.48,27.77,184.97,C7H15Cl,"3-chloro-2,3-dimethylpentane",595-38-0,203.65,Yaw
CC(Cl)CC(C)(C)C,2,3.792096407719209,1413.9757,220.48,28.77,184.55,C7H15Cl,"4-chloro-2,2-dimethylpentane",33429-72-0,203.65,Yaw
CCC(Cl)(CC)CC,2,4.351696407719209,1603.881,216.171,41.17,179.78,C7H15Cl,3-chloro-3-ethylpentane,994-25-2,203.65,Yaw
CC(C)(C)C(C)(C)Cl,2,3.562116407719208,1334.1613,222.148,22.97,186.97,C7H15Cl,"2-chloro-2,3,3-trimethylbutane",918-07-0,203.65,Yaw
CCCN(CCCl)CCCl,3,3.373916407719209,1944.0725,273.15,96.82,359.5,C7H15Cl2N,n-propylbis(2-chloroethyl)amine,621-68-1,252.51364588144202,ML
CCCCCCCF,"1,2",4.332516407719209,1478.6369,223.288,14.69,143.48,C7H15F,1-fluoroheptane,661-11-0,200.15,Yaw
CCCCCC(C)F,2,3.901166407719209,1346.1039,226.04,6.77,147.86,C7H15F,2-fluoroheptane,---,183.0882512783264,ML
CCCCC(F)CC,2,3.901166407719209,1346.1039,226.04,6.77,147.86,C7H15F,3-fluoroheptane,---,183.83514300958714,ML
CCCC(F)CCC,2,3.901166407719209,1346.1039,226.04,6.77,147.86,C7H15F,4-fluoroheptane,---,183.55867687984224,ML
CCCCC(C)CF,2,3.901166407719209,1346.1039,226.04,6.77,147.86,C7H15F,1-fluoro-2-methylhexane,---,185.32052490505455,ML
CCCC(C)CCF,2,3.901166407719209,1346.1039,226.04,6.77,147.86,C7H15F,1-fluoro-3-methylhexane,---,184.58519235252993,ML
CCC(C)CCCF,2,3.901166407719209,1346.1039,226.04,6.77,147.86,C7H15F,1-fluoro-4-methylhexane,---,184.21439242828737,ML
CC(C)CCCCF,2,3.901166407719209,1346.1039,226.04,6.77,147.86,C7H15F,1-fluoro-5-methylhexane,---,183.62867357123582,ML
CCCCC(C)(C)F,2,3.5599564077192083,1238.2668,228.82,-1.23,151.14,C7H15F,2-fluoro-2-methylhexane,---,184.21450076122838,ML
CCCC(C)C(C)F,2,3.5599564077192083,1238.2668,228.82,-1.23,151.14,C7H15F,2-fluoro-3-methylhexane,---,178.99425896901883,ML
CCC(C)CC(C)F,2,3.5599564077192083,1238.2668,228.82,-1.23,151.14,C7H15F,2-fluoro-4-methylhexane,---,180.6947104542182,ML
CC(C)CCC(C)F,2,3.5599564077192083,1238.2668,228.82,-1.23,151.14,C7H15F,2-fluoro-5-methylhexane,---,179.4302733224,ML
CCCC(F)C(C)C,2,3.5599564077192083,1238.2668,228.82,-1.23,151.14,C7H15F,3-fluoro-2-methylhexane,---,181.8424595364758,ML
CCCC(C)(F)CC,2,3.5599564077192083,1238.2668,228.82,-1.23,151.14,C7H15F,3-fluoro-3-methylhexane,---,182.1640094825066,ML
CCC(C)C(F)CC,2,3.5599564077192083,1238.2668,228.82,-1.23,151.14,C7H15F,3-fluoro-4-methylhexane,---,181.32543126599134,ML
CCC(F)CC(C)C,2,3.5599564077192083,1238.2668,228.82,-1.23,151.14,C7H15F,3-fluoro-5-methylhexane,---,179.50959310040537,ML
CCC(C)C(C)(C)F,2,3.5599564077192083,1238.2668,228.82,-1.23,151.14,C7H15F,"2-fluoro-2,3-dimethylpentane",---,181.80861669151184,ML
CC(C)CC(C)(C)F,2,3.5599564077192083,1238.2668,228.82,-1.23,151.14,C7H15F,"2-fluoro-2,4-dimethylpentane",---,182.1903281779696,ML
CCC(C)(F)C(C)C,2,3.5599564077192083,1238.2668,228.82,-1.23,151.14,C7H15F,"3-fluoro-2,3-dimethylpentane",---,182.1620321593782,ML
CC(F)CC(C)(C)C,2,3.5599564077192083,1238.2668,228.82,-1.23,151.14,C7H15F,"4-fluoro-2,2-dimethylpentane",---,187.59221636439202,ML
CCCCCCCI,"1,2",4.414826407719208,1781.013,199.366,83.53,233.57,C7H15I,1-iodoheptane,4282-40-0,224.95,Yaw
CCCCCC(C)I,2,4.4139764077192085,1747.9139,202.146,75.53,222.83,C7H15I,2-iodoheptane,18589-29-2,224.95,Yaw
CCCCC(I)CC,2,4.4139764077192085,1747.9139,202.146,75.53,222.83,C7H15I,3-iodoheptane,31294-92-5,224.95,Yaw
CCCC(I)CCC,2,4.4139764077192085,1747.9139,202.146,75.53,222.83,C7H15I,4-iodoheptane,31294-93-6,226.30291241436828,ML
CCCCC(C)CI,2,4.4139764077192085,1747.9139,202.146,75.53,222.83,C7H15I,1-iodo-2-methylhexane,---,219.33333055723708,ML
CCCC(C)CCI,2,4.4139764077192085,1747.9139,202.146,75.53,222.83,C7H15I,1-iodo-3-methylhexane,---,223.3801563213822,ML
CCC(C)CCCI,2,4.4139764077192085,1747.9139,202.146,75.53,222.83,C7H15I,1-iodo-4-methylhexane,---,223.3091353675759,ML
CC(C)CCCCI,2,4.4139764077192085,1747.9139,202.146,75.53,222.83,C7H15I,1-iodo-5-methylhexane,---,223.4089890151557,ML
CCCCC(C)(C)I,2,4.056706407719209,1617.7153,204.926,67.53,225.81,C7H15I,2-iodo-2-methylhexane,---,229.3483457612981,ML
CCCC(C)C(C)I,2,4.056706407719209,1617.7153,204.926,67.53,225.81,C7H15I,2-iodo-3-methylhexane,---,223.35017292229597,ML
CCC(C)CC(C)I,2,4.056706407719209,1617.7153,204.926,67.53,225.81,C7H15I,2-iodo-4-methylhexane,---,223.66350181210896,ML
CC(C)CCC(C)I,2,4.056706407719209,1617.7153,204.926,67.53,225.81,C7H15I,2-iodo-5-methylhexane,---,225.2522282301803,ML
CCCC(I)C(C)C,2,4.056706407719209,1617.7153,204.926,67.53,225.81,C7H15I,3-iodo-2-methylhexane,---,223.51201401605866,ML
CCCC(C)(I)CC,2,4.056706407719209,1617.7153,204.926,67.53,225.81,C7H15I,3-iodo-3-methylhexane,---,224.3280491212271,ML
CCC(C)C(I)CC,2,4.056706407719209,1617.7153,204.926,67.53,225.81,C7H15I,3-iodo-4-methylhexane,---,223.6174831271952,ML
CCC(I)CC(C)C,2,4.056706407719209,1617.7153,204.926,67.53,225.81,C7H15I,3-iodo-5-methylhexane,---,219.4471746759847,ML
CCC(C)C(C)(C)I,2,3.741996407719209,1502.6195,207.706,59.53,228.98,C7H15I,"2-iodo-2,3-dimethylpentane",---,233.80146916748632,ML
CC(C)CC(C)(C)I,2,3.741996407719209,1502.6195,207.706,59.53,228.98,C7H15I,"2-iodo-2,4-dimethylpentane",---,230.2909382261495,ML
CCC(C)(I)C(C)C,2,3.741996407719209,1502.6195,207.706,59.53,228.98,C7H15I,"3-iodo-2,3-dimethylpentane",---,225.23591036453408,ML
CC(I)CC(C)(C)C,2,3.741996407719209,1502.6195,207.706,59.53,228.98,C7H15I,"4-iodo-2,2-dimethylpentane",---,226.50725563453577,ML
CNC1CCCCC1,"1,2",4.334226407719209,1577.4263,215.096,38.71,176.01,C7H15N,N-methylcyclohexylamine,100-60-7,264.65,Yaw
NCC1CCCCC1,"1,2",4.867216407719209,1740.6829,211.584,46.37,169.63,C7H15N,cyclohexanemethanamine,3218-02-8,264.65,Yaw
C[C@H]1CCCC[C@H]1N,2,4.749486407719209,1687.8172,213.391,41.17,166.03,C7H15N,cis-2-methylcyclohexylamine,2164-19-4,264.65,Yaw
C[C@@H]1CCCC[C@H]1N,2,4.587966407719208,1634.8816,214.364,38.37,167.0,C7H15N,trans-2-methylcyclohexylamine,931-10-2,264.65,Yaw
C[C@@H]1CCC[C@H](N)C1,2,4.7258664077192085,1680.0797,213.53,40.77,166.16,C7H15N,cis-3-methylcyclohexylamine,1193-16-4,264.65,Yaw
CC1CCCC(N)C1,2,4.656106407719209,1657.2218,213.947,39.57,166.58,C7H15N,trans-3-methylcyclohexylamine,1193-17-5,264.65,Yaw
CC1CCC(N)CC1,2,4.749486407719209,1687.8172,213.391,41.17,166.03,C7H15N,cis-4-methylcyclohexylamine,2523-56-0,264.65,Yaw
CC1(C)CCCNC1,"1,2",4.212836407719209,1495.6758,217.978,27.47,164.37,C7H15N,"3,3-dimethylpiperidine",1193-12-0,270.0333635049711,ML
CC1CCCCN1C,2,4.034666407719208,1422.6102,220.619,19.87,160.41,C7H15N,"1,2-dimethylpiperidine, ()",2512-81-4,218.73658073035577,ML
CC1CCC(C)NC1,2,4.417326407719209,1545.8676,217.978,27.47,157.57,C7H15N,"2,5-dimethylpiperidine",34893-50-0,253.49722256641448,ML
CC1CNCC(C)C1,2,4.7369164077192085,1648.491,216.032,33.07,155.59,C7H15N,"3,5-dimethylpiperidine",35794-11-7,250.921631109454,ML
CCN1CCCCC1,"1,2",4.204866407719209,1474.0246,219.702,22.51,157.88,C7H15N,1-ethylpiperidine,766-09-6,231.9339200356466,ML
CCC1CCCNC1,2,5.182796407719209,1791.2713,213.642,39.95,153.29,C7H15N,"3-ethylpiperidine, ()",59433-08-8,260.3230554608409,ML
CCC1CCNCC1,2,5.261766407719209,1816.518,213.252,41.07,152.93,C7H15N,4-ethylpiperidine,3230-23-7,266.6695378140967,ML
CCCN1CCCC1,3,4.316346407719209,1537.5117,219.229,28.87,163.68,C7H15N,1-propylpyrrolidine,7335-07-1,232.19285780100145,ML
CCCC1CCNC1,3,4.041156407719209,1551.1544,211.862,50.07,202.87,C7H15N,3-propylpyrrolidine,116632-47-4,265.6838231518265,ML
CC1CNC(C)(C)C1,3,2.9457664077192085,1163.4577,222.982,18.07,216.93,C7H15N,"2,2,4-trimethylpyrrolidine",35018-28-1,242.57469873388678,ML
CC1CCC(C)(C)N1,3,2.7992564077192084,1111.0411,224.928,12.47,219.8,C7H15N,"2,2,5-trimethylpyrrolidine",6496-48-6,261.10183007274577,ML
CC1CCCCC1N,2,4.565596407719209,1627.5468,214.503,37.97,167.14,C7H15N,2-methylcyclohexylamine; (cis+trans),7003-32-9,264.65,Yaw
C=CCN(CC)CC,"1,2",3.011866407719209,1049.4956,238.453,-23.95,148.69,C7H15N,allyldiethylamine,5666-17-1,181.15399062049235,ML
CC(C)N(C=O)C(C)C,"1,2",4.574596407719208,1816.9345,201.729,79.73,223.43,C7H15NO,"N,N-diisopropylformamide",2700-30-3,283.65,Yaw