smiles,code,A [log10(atm)],B [C],C [C],TMIN [C],TMAX [C],FORMULA,NAME,CAS No,mp [K],mp_type
FC(F)(F)C(F)(C(F)(F)F)S(F)(F)C(F)(C(F)(F)F)C(F)(F)F,3,4.969286407719209,1911.0,273.15,-0.15,136.21,C6F16S,"difluorobis[1,2,2,2-tetrafluoro-1-(trifluoromethyl)-ethyl] sulfur",1423-18-3,250.8109090137176,ML
FC(F)(F)N(C=C(Br)N(C(F)(F)F)C(F)(F)F)C(F)(F)F,3,4.510186407719209,1683.0,273.15,-9.81,126.69,C6HBrF12N2,"1-bromo-N,N,N',N'-tetrakis(trifluoro-methyl)vinylene-diamine",19451-95-7,266.03383027498364,ML
O=C(O)C(F)(F)C(F)(Cl)C(F)(F)C(F)(Cl)C(F)(F)Cl,3,6.638586407719208,3353.4821,273.15,99.85,255.99,C6HCl3F8O2,"3,5,6-trichloro-2,2,3,4,4,5,6,6-octafluorohexanoic acid",2106-54-9,326.108817403399,ML
O=C1C=C(Cl)C(=O)C(Cl)=C1Cl,3,5.029396407719209,2900.634,273.15,146.61,340.3,C6HCl3O2,trichlorobenzoquinone,634-85-5,398.9007119409289,ML
Clc1cc(Cl)c(Cl)c(Cl)c1Cl,"1,2",4.212976407719209,1816.0515,154.012,144.01,310.22,C6HCl5,pentachlorobenzene,608-93-5,358.65,Yaw
Fc1cc(F)c(F)c(F)c1F,"1,2",4.230756407719209,1280.0832,217.716,-8.26,108.03,C6HF5,pentafluorobenzene,363-72-4,225.75,Yaw
Oc1c(F)c(F)c(F)c(F)c1F,3,4.262026407719208,1419.7413,187.514,39.0,170.92,C6HF5O,pentafluorophenol,771-61-9,310.65,Yaw
Oc1c(Cl)cc(Cl)c(Br)c1Cl,3,5.961796407719209,3532.67,287.189,112.85,336.87,C6H2BrCl3O,"3-bromo-2,4,6-trichlorophenol",85117-86-8,374.1362836909136,ML
O=[N+]([O-])c1cc([N+](=O)[O-])c(Cl)c([N+](=O)[O-])c1,3,5.089186407719208,3298.0,273.15,199.85,415.63,C6H2ClN3O6,"2-chloro-1,3,5-trinitrobenzene",88-88-0,356.15,Yaw
O=C1C=C(Cl)C(=O)C(Cl)=C1,3,7.072986407719208,3713.0031,273.15,141.53,275.14,C6H2Cl2O2,"2,6-dichloro-p-benzoquinone",697-91-6,394.15,Yaw
Fc1c(Cl)cc(Cl)cc1Cl,3,9.87207640771921,8622.124,666.028,24.85,234.83,C6H2Cl3F,"1,3,5-trichloro-2-fluorobenzene",36556-33-9,302.59119935139745,ML
O=[N+]([O-])c1cc(Cl)c(Cl)cc1Cl,"1,2",5.2782564077192085,2962.16,273.15,140.61,321.99,C6H2Cl3NO2,"2,4,5-trichloronitrobenzene",89-69-0,330.15,Yaw
Clc1ccc(Cl)c(Cl)c1Cl,"1,2",4.031706407719208,1771.83,185.425,114.25,289.51,C6H2Cl4,"1,2,3,4-tetrachlorobenzene",634-66-2,319.65,Yaw
Clc1cc(Cl)c(Cl)c(Cl)c1,"1,2",4.0215464077192085,1744.1383,187.649,107.85,281.14,C6H2Cl4,"1,2,3,5-tetrachlorobenzene",634-90-2,327.65,Yaw
Oc1c(Cl)cc(Cl)c(Cl)c1Cl,3,3.850056407719209,2185.6791,236.106,99.85,379.75,C6H2Cl4O,"2,3,4,6-tetrachlorophenol",58-90-2,343.15,Yaw
Oc1c(Cl)c(Cl)c(O)c(Cl)c1Cl,3,8.497226407719209,5314.6892,273.15,238.96,375.28,C6H2Cl4O2,tetrachlorohydroquinone,87-87-6,512.15,Yaw
Fc1ccc(F)c(F)c1F,3,5.825976407719208,1640.1108,215.328,-2.51,81.53,C6H2F4,"1,2,3,4-tetrafluorobenzene",551-62-2,233.26,Yaw
Fc1cc(F)c(F)c(F)c1,3,5.222446407719209,1503.8758,221.775,-10.06,83.8,C6H2F4,"1,2,3,5-tetrafluorobenzene",2367-82-0,226.9,Yaw
Fc1cc(F)c(F)cc1F,3,7.416286407719209,2203.9518,230.989,6.07,78.76,C6H2F4,"1,2,4,5-tetrafluorobenzene",327-54-8,277.03,Yaw
Oc1c(Cl)cc(Cl)cc1Br,3,5.1448564077192085,2639.63,244.859,130.85,300.09,C6H3BrCl2O,"2-bromo-4,6-dichlorophenol",4524-77-0,341.15,Yaw
O=[N+]([O-])c1ccc(Cl)c([N+](=O)[O-])c1,3,4.876536407719208,2391.9143,175.644,178.33,347.12,C6H3ClN2O4,"1-chloro-2,4-dinitrobenzene",97-00-7,326.15,Yaw
O=C1C=CC(=O)C(Cl)=C1,3,7.445256407719208,3466.1214,273.15,98.51,212.01,C6H3ClO2,"2-chloro-1,4-benzoquinone",695-99-8,327.65,Yaw
O=[N+]([O-])c1ccc(Cl)c(Cl)c1,3,4.578596407719209,2047.5281,191.345,125.64,287.32,C6H3Cl2NO2,"1,2-dichloro-4-nitrobenzene",99-54-7,315.65,Yaw
Clc1ccc(Cl)c(Cl)c1,"1,2",4.491686407719208,2021.9164,236.596,80.69,245.89,C6H3Cl3,"1,2,4-trichlorobenzene",120-82-1,290.15,Yaw
Clc1cccc(Cl)c1Cl,"1,2",3.958366407719208,1638.1435,195.294,52.5,252.61,C6H3Cl3,"1,2,3-trichlorobenzene",87-61-6,325.65,Yaw
Clc1cc(Cl)cc(Cl)c1,"1,2",3.952626407719209,1605.4738,198.129,63.5,241.53,C6H3Cl3,"1,3,5-trichlorobenzene",108-70-3,336.65,Yaw
Oc1cc(Cl)c(Cl)cc1Cl,3,3.9210364077192086,2042.1112,237.476,71.85,326.64,C6H3Cl3O,"2,4,5-trichlorophenol",95-95-4,342.15,Yaw
Oc1c(Cl)cc(Cl)cc1Cl,3,4.131106407719209,2157.0078,238.804,71.8,324.37,C6H3Cl3O,"2,4,6-trichlorophenol",88-06-2,342.15,Yaw
Oc1cc(Cl)c(O)c(Cl)c1Cl,3,5.020946407719209,2910.0273,273.15,148.49,343.39,C6H3Cl3O2,"2,3,5-trichloro-1,4-benzenediol",608-94-6,422.35921871116443,ML
Fc1cc(F)cc(F)c1,"1,2",4.449466407719209,1381.6734,235.075,-16.81,97.98,C6H3F3,"1,3,5-trifluorobenzene",372-38-3,267.65,Yaw
CC(=O)OC(C(F)(F)F)(C(F)(F)F)C(F)(F)F,3,5.840986407719209,2092.3,273.15,-2.19,104.52,C6H3F9O2,"2,2,2-trifluoro-1,1-bis(trifluoromethyl)-ethyl acetate",24165-09-1,273.2910039968183,ML
Clc1cccc(Br)c1,3,4.483526407719209,1909.4698,229.886,34.85,226.65,C6H4BrCl,1-bromo-3-chlorobenzene,108-37-2,251.65,Yaw
Brc1cccc(Br)c1,"1,2",4.215066407719209,1747.4982,196.534,90.13,249.94,C6H4Br2,m-dibromobenzene,108-36-1,266.25,Yaw
Brc1ccccc1Br,2,3.975546407719208,1671.3137,193.514,91.87,261.32,C6H4Br2,o-dibromobenzene,583-53-9,274.95,Yaw
Brc1ccc(Br)cc1,"1,2",4.021636407719209,1664.438,195.321,86.67,252.04,C6H4Br2,p-dibromobenzene,106-37-6,360.0,Yaw
Fc1cccc(Cl)c1,3,4.957376407719209,2003.684,276.582,-0.15,153.73,C6H4ClF,1-chloro-3-fluorobenzene,625-98-9,226.62522635941608,ML
O=[N+]([O-])c1cccc(Cl)c1,3,4.539946407719208,1956.7682,195.411,109.35,266.21,C6H4ClNO2,m-chloronitrobenzene,121-73-3,317.65,Yaw
O=[N+]([O-])c1ccccc1Cl,3,4.549646407719209,2007.4733,195.387,116.79,277.11,C6H4ClNO2,o-chloronitrobenzene,88-73-3,306.15,Yaw
O=[N+]([O-])c1ccc(Cl)cc1,3,4.527206407719208,1953.6576,189.537,115.34,272.74,C6H4ClNO2,p-chloronitrobenzene,100-00-5,356.65,Yaw
Clc1ccccc1Cl,"1,2",4.087796407719209,1595.0445,209.647,57.59,211.57,C6H4Cl2,o-dichlorobenzene,95-50-1,256.15,Yaw
Clc1cccc(Cl)c1,"1,2",4.309746407719208,1727.6279,227.815,51.26,203.15,C6H4Cl2,m-dichlorobenzene,541-73-1,248.39,Yaw
Clc1ccc(Cl)cc1,"1,2",4.381596407719209,1805.1119,237.826,50.42,204.54,C6H4Cl2,p-dichlorobenzene,106-46-7,326.14,Yaw
Oc1ccc(Cl)cc1Cl,3,4.525236407719208,2090.5414,233.215,52.85,261.68,C6H4Cl2O,"2,4-dichlorophenol",120-83-2,318.15,Yaw
Oc1c(Cl)cccc1Cl,3,4.959706407719208,2308.8299,236.759,59.85,258.84,C6H4Cl2O,"2,6-dichlorophenol",87-65-0,341.65,Yaw
Oc1cc(Cl)cc(Cl)c1,3,7.730506407719208,3880.0083,273.15,130.54,249.1,C6H4Cl2O,"3,5-dichlorophenol",591-35-5,341.15,Yaw
Oc1cc(Cl)c(O)c(Cl)c1,3,9.003626407719208,4755.46,273.15,163.75,273.29,C6H4Cl2O2,"2,6-dichloro-1,4-benzenediol",20103-10-0,400.3227142131497,ML
C=COC(=O)/C(Cl)=C(/Cl)C=O,3,6.948486407719209,3340.3,273.15,105.17,229.34,C6H4Cl2O3,vinyl mucochlorate,900000-64-8,317.54623690567456,ML
Nc1c(Cl)cc(Cl)cc1Cl,"1,2",9.076296407719209,4861.8988,273.62,133.85,280.43,C6H4Cl3N,"2,4,6-trichloroaniline",634-93-5,351.65,Yaw
Clc1cccc([Si](Cl)(Cl)Cl)c1,3,3.954986407719209,1572.27,167.18,102.24,263.11,C6H4Cl4Si,trichloro(3-chlorophenyl)silane,2003-89-6,259.64364842759403,ML
Fc1cccc(F)c1,"1,2",4.751796407719208,1487.8123,231.255,-6.94,103.03,C6H4F2,m-difluorobenzene,372-18-9,204.03,Yaw
Fc1ccccc1F,"1,2",4.1853964077192085,1293.0322,216.889,-3.74,115.99,C6H4F2,o-difluorobenzene,367-11-3,239.16,Yaw
Fc1ccc(F)cc1,"1,2",4.315906407719209,1374.6402,229.456,-12.99,112.93,C6H4F2,p-difluorobenzene,540-36-3,260.16,Yaw
O=[N+]([O-])c1ccccc1I,3,5.556246407719209,3129.0,273.15,147.58,322.26,C6H4INO2,1-iodo-2-nitrobenzene,609-73-4,327.15,Yaw
Ic1ccccc1I,"1,2",3.982286407719209,1924.5526,176.278,151.97,346.52,C6H4I2,o-diiodobenzene,615-42-9,300.15,Yaw
Ic1cccc(I)c1,"1,2",4.569426407719209,2110.5461,176.834,150.37,317.62,C6H4I2,m-diiodobenzene,626-00-6,313.55,Yaw
Ic1ccc(I)cc1,"1,2",4.569426407719209,2110.5461,176.834,150.37,317.62,C6H4I2,p-diiodobenzene,624-38-4,404.65,Yaw
O=[N+]([O-])c1cccc([N+](=O)[O-])c1,"1,2",4.8250364077192085,2265.8491,172.552,165.34,328.3,C6H4N2O4,m-dinitrobenzene,99-65-0,363.23,Yaw
O=[N+]([O-])c1ccccc1[N+](=O)[O-],"1,2",4.783496407719209,2324.5561,166.904,181.9,351.69,C6H4N2O4,o-dinitrobenzene,528-29-0,390.08,Yaw
O=[N+]([O-])c1ccc([N+](=O)[O-])cc1,"1,2",4.896986407719209,2245.9056,164.021,167.34,324.65,C6H4N2O4,p-dinitrobenzene,100-25-4,446.6,Yaw
C1=CSC(=C2SC=CS2)S1,3,7.148356407719209,4100.1103,270.7,183.4,328.09,C6H4S4,tetrathiafulvalene,31366-25-3,391.65,Yaw
Cl[As](Cl)c1ccccc1,3,4.996846407719208,2477.2285,240.759,119.43,286.78,C6H5AsCl2,dichlorophenylarsine,696-28-6,254.15,Yaw
Brc1ccccc1,"1,2",4.256426407719209,1617.1109,223.972,39.52,184.86,C6H5Br,bromobenzene,108-86-1,242.43,Yaw
Clc1ccccc1,"1,2",4.291806407719209,1571.7847,234.229,20.41,159.63,C6H5Cl,chlorobenzene,108-90-7,227.95,Yaw
Oc1cccc(Cl)c1,3,8.183336407719208,3467.1384,258.295,86.21,181.57,C6H5ClO,m-chlorophenol,108-43-0,306.0,Yaw
Oc1ccccc1Cl,3,5.473226407719208,2435.3631,279.572,51.59,191.28,C6H5ClO,o-chlorophenol,95-57-8,282.0,Yaw
Oc1ccc(Cl)cc1,3,8.738596407719209,3609.72,247.69,92.23,180.13,C6H5ClO,p-chlorophenol,106-48-9,316.0,Yaw
Nc1ccc(Cl)c(Cl)c1,"1,2",4.519516407719209,2092.1445,190.864,136.02,305.08,C6H5Cl2N,"3,4-dichloroaniline",95-76-1,344.65,Yaw
O=P(Cl)(Cl)Oc1ccccc1,3,4.2664764077192086,1800.71,180.06,112.87,274.04,C6H5Cl2O2P,phenyl dichlorophosphate,770-12-7,325.7,Yaw
Cl[Si](Cl)(Cl)c1ccccc1,3,4.307596407719209,1769.1733,208.91,76.97,232.66,C6H5Cl3Si,trichlorophenylsilane,98-13-5,233.2,Yaw
Fc1ccccc1,"1,2",4.245396407719209,1350.364,233.227,-42.21,109.13,C6H5F,fluorobenzene,462-06-6,230.94,Yaw
Oc1ccccc1F,3,4.605796407719208,1667.3,210.5,19.85,176.81,C6H5FO,2-fluorophenol,367-12-4,289.25,Yaw
F[Si](F)(F)c1ccccc1,3,5.555346407719208,2220.9732,298.29,-10.15,124.4,C6H5F3Si,trifluorophenylsilane,368-47-8,255.15,Yaw
Ic1ccccc1,"1,2",4.246096407719208,1736.4985,220.463,62.96,219.71,C6H5I,iodobenzene,591-50-4,241.83,Yaw
O=[N+]([O-])c1ccccc1,"1,2",4.655456407719209,2017.7914,222.575,86.13,240.81,C6H5NO2,nitrobenzene,98-95-3,278.91,Yaw
O=[N+]([O-])c1ccccc1O,"1,2",2.681346407719209,1104.8929,196.016,46.17,268.16,C6H5NO3,o-nitrophenol,88-75-5,317.95,Yaw
c1ccccc1,"1,2",3.933506407719209,1090.4312,197.146,-9.6,103.04,C6H6,benzene,71-43-2,278.67,Yaw
C=CC#CC=C,"1,2",1.5432664077192086,325.8986,124.624,-50.15,137.72,C6H6,"1,5-hexadien-3-yne",821-08-9,185.15,Yaw
C#CC=CC=C,"1,2",3.6889364077192086,1073.3583,206.117,-40.15,110.7,C6H6,"1,3-hexadien-5-yne",10420-90-3,192.15,Yaw
C#CCCC#C,"1,2",3.822946407719209,1131.3805,210.094,-11.74,111.15,C6H6,"1,5-hexadiyne",628-16-0,267.15,Yaw
ClC=C[As](C=CCl)C=CCl,3,6.1786864077192085,3295.0,273.15,135.68,287.45,C6H6AsCl3,tris(2-chloroethenyl)arsine,40334-70-1,304.4005071000856,ML
Nc1cccc(Cl)c1,"1,2",4.468276407719209,1935.6153,203.141,101.72,261.34,C6H6ClN,m-chloroaniline,108-42-9,262.75,Yaw
Nc1ccccc1Cl,"1,2",4.523036407719209,1879.5785,206.706,86.8,238.48,C6H6ClN,o-chloroaniline,95-51-2,271.05,Yaw
Nc1ccc(Cl)cc1,"1,2",4.466496407719209,1941.2292,202.57,69.9,263.46,C6H6ClN,p-chloroaniline,106-47-8,343.05,Yaw
Cl[SiH](Cl)c1ccccc1,3,5.279226407719209,2397.56,273.15,61.7,208.46,C6H6Cl2Si,dichlorophenylsilane,1631-84-1,225.3747270174101,ML
ClC1C(Cl)C(Cl)C(Cl)C(Cl)C1Cl,3,5.063296407719209,3132.4555,245.024,206.07,412.74,C6H6Cl6,"1,2,3,4,5,6-hexachlorocyclohexane, (1alpha,2beta,3alpha,4beta,5alpha,6beta)-",319-85-7,385.65,Yaw
N#CCC=CCC#N,3,13.31201640771921,4897.6713,178.883,143.48,197.54,C6H6N2,"trans-1,4-dicyano-2-butene",1119-85-3,349.0,Yaw
Nc1cccc([N+](=O)[O-])c1,"1,2",5.332866407719209,2842.1374,226.884,167.11,337.95,C6H6N2O2,m-nitroaniline,99-09-2,387.15,Yaw
Nc1ccccc1[N+](=O)[O-],"1,2",5.441446407719209,2822.5633,234.666,150.81,314.43,C6H6N2O2,o-nitroaniline,88-74-4,344.65,Yaw
Nc1ccc([N+](=O)[O-])cc1,"1,2",5.420216407719209,3020.9668,221.391,147.5,368.74,C6H6N2O2,p-nitroaniline,100-01-6,420.65,Yaw
O=[N+]([O-])Nc1ccccc1,3,4.964596407719209,2236.8985,177.064,149.71,302.59,C6H6N2O2,N-nitroaniline,645-55-6,320.45,Yaw
Oc1ccccc1,"1,2",4.486016407719209,1629.4035,181.369,40.91,207.98,C6H6O,phenol,108-95-2,314.06,Yaw
Oc1ccccc1O,"1,2",5.853746407719209,3041.9489,274.659,104.45,273.17,C6H6O2,pyrocatechol,120-80-9,377.6,Yaw
Oc1cccc(O)c1O,"1,2",7.186686407719209,4842.1169,364.762,162.0,338.46,C6H6O3,"1,2,3-benzenetriol",87-66-1,405.15,Yaw
Sc1ccccc1,"1,2",4.194256407719209,1553.5392,201.647,54.08,197.39,C6H6S,phenyl mercaptan,108-98-5,258.26,Yaw
[SeH]c1ccccc1,3,5.188836407719208,2370.0,273.15,57.85,211.73,C6H6Se,benzeneselenol,645-96-5,287.99094256017565,ML
Cc1ccccn1,"1,2",4.296096407719209,1511.361,222.949,21.73,155.36,C6H7N,2-methylpyridine,109-06-8,206.44,Yaw
Cc1cccnc1,"1,2",4.234996407719208,1524.6165,216.154,33.14,171.4,C6H7N,3-methylpyridine,108-99-6,255.01,Yaw
Cc1ccncc1,"1,2",4.382676407719209,1618.0459,224.341,3.65,172.08,C6H7N,4-methylpyridine,108-89-4,276.8,Yaw
CC1=CC=CC1,3,4.164076407719208,1319.0729,241.277,-23.06,100.18,C6H8,methylcyclopentadiene,26519-91-5,204.13155406335628,ML
C1=CCCC=C1,"1,2",4.245816407719208,1354.1539,238.088,-17.06,105.19,C6H8,"1,3-cyclohexadiene",592-57-4,184.0,Yaw
C1=CCC=CC1,2,4.192766407719208,971.9884,156.327,3.71,93.43,C6H8,"1,4-cyclohexadiene",628-41-1,161.0,Yaw
C=CC=CC=C,"1,2",4.409506407719209,1386.3106,234.241,-13.85,103.19,C6H8,"trans-1,3,5-hexatriene",821-07-8,261.15,Yaw
C=C/C=C\C=C,"1,2",4.502176407719209,1406.6172,234.38,-14.01,100.44,C6H8,"cis-1,3,5-hexatriene",2612-46-6,261.15,Yaw
C=CC#CCC,"1,2",4.632366407719209,1470.7051,232.434,-6.63,107.12,C6H8,1-hexen-3-yne,13721-54-5,170.9685292598282,ML
C=CCC#CC,2,4.988556407719209,1558.3056,231.878,-5.03,100.56,C6H8,1-hexen-4-yne,5009-11-0,172.52878101037732,ML
C#CCCC=C,2,4.1357764077192085,1311.461,236.604,-18.63,105.39,C6H8,1-hexen-5-yne,14548-31-3,171.26191548418691,ML
CC#CC=CC,"1,2",4.752796407719209,1510.0176,231.461,-3.83,107.73,C6H8,2-hexen-4-yne,14092-20-7,186.3198930508843,ML
C=C(C)C#CC,2,4.503946407719209,1418.2428,234.391,-12.26,103.05,C6H8,2-methyl-1-penten-3-yne,926-55-6,188.84625380784132,ML
C#CC(C)=CC,"1,2",4.503026407719209,1379.8487,237.577,-21.43,90.8,C6H8,3-methyl-3-penten-1-yne,1574-33-0,187.3742725479518,ML
O=C(CCl)OCCOC(=O)CCl,3,4.582146407719208,2367.4586,208.02,111.85,344.98,C6H8Cl2O4,ethylene glycol bis(chloroacetate),6941-69-1,318.65,Yaw
N#CCCCCC#N,"1,2",5.067916407719209,2703.3976,238.384,150.67,328.74,C6H8N2,adiponitrile,111-69-3,275.55,Yaw
CC(C#N)CCC#N,3,10.110046407719208,3993.8576,202.259,130.82,204.9,C6H8N2,methylglutaronitrile,4553-62-2,228.15,Yaw
Nc1cccc(N)c1,"1,2",5.1834264077192085,2650.5501,228.301,146.91,314.58,C6H8N2,m-phenylenediamine,108-45-2,339.1,Yaw
Nc1ccccc1N,"1,2",4.577576407719208,2028.7652,186.147,103.8,288.25,C6H8N2,o-phenylenediamine,95-54-5,376.95,Yaw
Nc1ccc(N)cc1,"1,2",4.668636407719209,2076.604,177.749,139.32,297.71,C6H8N2,p-phenylenediamine,106-50-3,413.0,Yaw
NNc1ccccc1,"1,2",4.965586407719209,2231.0604,209.754,116.12,268.55,C6H8N2,phenylhydrazine,100-63-0,292.35,Yaw
N#CCCOCCC#N,3,11.021176407719208,4658.5464,191.768,169.3,242.79,C6H8N2O,bis(cyanoethyl) ether,1656-48-0,246.85,Yaw
CCCC#CC=O,2,3.924276407719209,1510.3005,215.198,44.97,201.64,C6H8O,2-hexynal,27593-24-4,212.15,Yaw
CCC#CCC=O,2,3.924276407719209,1510.3005,215.198,44.97,201.64,C6H8O,3-hexynal,89533-67-5,212.15,Yaw
CC#CCCC=O,2,3.924276407719209,1510.3005,215.198,44.97,201.64,C6H8O,4-hexynal,41143-14-0,212.15,Yaw
C#CCCCC=O,2,3.924276407719209,1510.3005,215.198,44.97,201.64,C6H8O,5-hexynal,29329-03-1,212.15,Yaw
C#CCC(C)C=O,2,3.6136964077192086,1400.8153,217.978,36.97,204.89,C6H8O,2-methyl-4-pentynal,---,212.15,Yaw
C#CC(C)CC=O,2,3.6136964077192086,1400.8153,217.978,36.97,204.89,C6H8O,3-methyl-4-pentynal,---,212.15,Yaw
CC(C)C#CC=O,2,3.6136964077192086,1400.8153,217.978,36.97,204.89,C6H8O,4-methyl-2-pentynal,---,212.15,Yaw
CCc1ccco1,"1,2",4.4994464077192085,1449.7176,230.349,-3.13,114.95,C6H8O,2-ethylfuran,3208-16-0,210.35,Yaw
CCc1ccoc1,2,4.607776407719209,1475.3753,230.53,-3.15,112.04,C6H8O,3-ethylfuran,67363-95-5,210.35,Yaw
Cc1ccoc1C,"1,2",4.470696407719209,1449.816,229.793,-1.53,117.91,C6H8O,"2,3-dimethylfuran",14920-89-9,210.35,Yaw
Cc1coc(C)c1,"1,2",4.518146407719208,1462.3187,229.654,-1.13,117.1,C6H8O,"2,4-dimethylfuran",3710-43-8,210.35,Yaw
Cc1ccc(C)o1,"1,2",4.429986407719209,1435.5826,230.21,-2.73,117.48,C6H8O,"2,5-dimethylfuran",625-86-5,210.35,Yaw
Cc1cocc1C,2,4.0064364077192085,1297.6778,234.236,-13.81,115.98,C6H8O,"3,4-dimethylfuran",20843-07-6,210.35,Yaw
CCC#CCC(=O)O,3,4.815006407719209,2104.4009,186.377,128.0,280.0,C6H8O2,3-hexynoic acid,---,300.15,Yaw
CC#CCCC(=O)O,3,4.815006407719209,2104.4009,186.377,128.0,280.0,C6H8O2,4-hexynoic acid,---,300.15,Yaw
C#CCCCC(=O)O,3,4.815006407719209,2104.4009,186.377,128.0,280.0,C6H8O2,5-hexynoic acid,53293-00-8,300.15,Yaw
CC(C)C#CC(=O)O,3,4.815006407719209,2104.4009,186.377,128.0,280.0,C6H8O2,4-methyl-2-pentynoic acid,---,300.15,Yaw
C#CCC(C)C(=O)O,3,4.815006407719209,2104.4009,186.377,128.0,280.0,C6H8O2,2-methyl-4-pentynoic acid,---,300.15,Yaw
CCCC#CC(=O)O,"1,2",4.817296407719208,2158.7092,182.116,140.0,296.0,C6H8O2,2-hexynoic acid,764-33-0,300.15,Yaw
COC(=O)C=CC(=O)OC,"1,2",4.922386407719209,2194.2341,240.766,81.76,234.04,C6H8O4,dimethyl maleate,624-48-6,254.15,Yaw
CCc1cccs1,"1,2",4.174406407719209,1450.9823,213.54,26.08,161.06,C6H8S,2-ethylthiophene,872-55-9,206.25,Yaw
CCc1ccsc1,2,4.207506407719209,1465.5984,213.16,27.56,162.01,C6H8S,3-ethylthiophene,1795-01-3,184.05,Yaw
Cc1ccsc1C,"1,2",4.213496407719209,1485.874,212.096,31.72,167.68,C6H8S,"2,3-dimethylthiophene",632-16-6,224.15,Yaw
Cc1csc(C)c1,2,4.394226407719208,1526.7111,212.267,31.03,160.72,C6H8S,"2,4-dimethylthiophene",638-00-6,206.25,Yaw
Cc1ccc(C)s1,"1,2",4.393146407719208,1653.4381,239.817,23.72,164.24,C6H8S,"2,5-dimethylthiophene",638-02-8,210.55,Yaw
Cc1cscc1C,"1,2",4.171556407719208,1487.159,211.45,34.27,172.78,C6H8S,"3,4-dimethylthiophene",632-15-5,206.25,Yaw
C=CC(Cl)=CCC,2,3.857396407719208,1360.6349,222.148,14.97,160.44,C6H9Cl,"3-chloro-1,3-hexadiene",101870-06-8,207.9610308283043,ML
CCC(C)=C=CCl,2,3.866796407719209,1363.6638,222.074,15.18,160.36,C6H9Cl,"1-chloro-3-methyl-1,2-pentadiene",32337-74-9,190.74687882418925,ML
C#CC(C)(Cl)CC,2,2.9109764077192084,1130.0709,227.625,8.21,205.36,C6H9Cl,3-chloro-3-methyl-1-pentyne,14179-94-3,227.59785423334233,ML
CC#CC(C)(C)Cl,2,3.3955764077192088,1299.3509,222.074,24.18,197.81,C6H9Cl,4-chloro-4-methyl-2-pentyne,999-79-1,237.99922523809119,ML
C#CCCCCCl,2,3.3955764077192088,1299.3509,222.074,24.18,197.81,C6H9Cl,6-chloro-1-hexyne,10297-06-0,231.83983155872792,ML
CCCCC(Cl)=C(Cl)Cl,2,3.889216407719209,1556.465,206.9,62.85,226.88,C6H9Cl3,"1,1,2-trichloro-1-hexene",53977-99-4,238.91347705420057,ML
CCCCOC(=O)C(F)(F)F,3,4.830546407719209,1676.2,245.0,4.76,125.06,C6H9F3O2,butyl trifluoroacetate,367-64-6,213.43494276216862,ML
Cc1c[nH]c(C)c1,"1,2",4.642056407719209,1739.1961,209.36,57.27,191.28,C6H9N,"2,4-dimethylpyrrole",625-82-1,279.65,Yaw
Cc1ccc(C)[nH]1,2,4.832296407719209,1800.4302,208.526,59.67,188.81,C6H9N,"2,5-dimethylpyrrole",625-84-3,279.65,Yaw
CCn1cccc1,"1,2",4.461496407719209,1563.5903,220.063,6.5,155.76,C6H9N,1-ethyl-1H-pyrrole,617-92-5,279.65,Yaw
CCc1ccc[nH]1,"1,2",4.524046407719209,1694.3567,210.472,54.07,190.75,C6H9N,2-ethyl-1H-pyrrole,1551-06-0,279.65,Yaw
C=CCCCC#N,2,4.052006407719209,1553.1023,210.611,51.17,203.44,C6H9N,5-hexenenitrile,5048-19-1,198.26273014684443,ML
CC1=CCCC1,"1,2",4.051816407719208,1233.9176,228.685,-20.7,100.29,C6H10,1-methylcyclopentene,693-89-0,121.23,Yaw
CC1C=CCC1,"1,2",4.416476407719209,1452.0339,262.926,-32.35,89.9,C6H10,3-methylcyclopentene,1120-62-3,130.16,Yaw
CC1CC=CC1,"1,2",4.2421264077192085,1257.3724,231.251,-25.9,87.79,C6H10,4-methylcyclopentene,1759-81-5,112.3,Yaw
C1=CCCCC1,"1,2",4.1420864077192086,1300.3889,230.976,-15.07,107.57,C6H10,cyclohexene,110-83-8,169.67,Yaw
C=CC=CCC,2,4.702466407719209,1440.0943,236.191,-17.44,91.0,C6H10,hexadiene,42296-74-2,178.25,Yaw
C=C=CCCC,"1,2",4.130036407719208,1236.5754,224.56,-18.84,98.39,C6H10,"1,2-hexadiene",592-44-9,178.25,Yaw
C=C/C=C\CC,"1,2",4.061926407719208,1211.3071,225.13,-21.3,96.95,C6H10,"1,cis-3-hexadiene",14596-92-0,178.25,Yaw
C=C/C=C/CC,"1,2",3.938216407719208,1121.1389,211.432,-18.76,96.81,C6H10,"1,trans-3-hexadiene",20237-34-7,170.75,Yaw
C=CCC=CC,"1,2",4.732896407719209,1434.2784,237.994,-21.13,85.63,C6H10,"1,4-hexadiene",592-45-0,134.45,Yaw
C=CCCC=C,"1,2",4.155336407719209,1267.0442,245.07,-35.16,83.66,C6H10,"1,5-hexadiene",592-42-7,132.47,Yaw