smiles,code,A [log10(atm)],B [C],C [C],TMIN [C],TMAX [C],FORMULA,NAME,CAS No,mp [K],mp_type
FC(F)(F)[As](Cl)Cl,3,3.5611764077192083,1078.18,222.61,-48.15,108.11,CAsCl2F3,dichloro(trifluoro-methyl)arsine,421-32-9,206.06822068039483,ML
FC(F)(Cl)Br,"1,2",4.083526407719209,1008.7093,249.569,-80.45,153.0,CBrClF2,bromochlorodifluoromethane,353-59-3,113.65,Yaw
FC(Cl)(Cl)Br,"1,2",4.6508164077192085,1515.7,273.15,-41.09,75.3,CBrCl2F,bromodichlorofluoromethane,353-58-2,113.65,Yaw
ClC(Cl)(Cl)Br,"1,2",4.294546407719209,1468.7621,238.507,-21.0,131.16,CBrCl3,bromotrichloromethane,75-62-7,252.15,Yaw
O=C(F)Br,3,4.737686407719209,1196.7,273.15,-92.34,-3.42,CBrFO,carbonic bromide fluoride,753-56-0,147.12832281466325,ML
FC(F)(F)Br,"1,2",4.088136407719209,800.4823,253.656,-119.55,67.0,CBrF3,bromotrifluoromethane,75-63-8,105.15,Yaw
FC(Cl)(Br)Br,"1,2",4.802376407719208,1697.4,273.15,-19.17,103.94,CBr2ClF,dibromochlorofluoromethane,353-55-9,184.99573991139195,ML
FC(F)(Br)Br,"1,2",4.257286407719208,1187.3002,254.436,-61.01,45.67,CBr2F2,dibromodifluoromethane,75-61-6,131.6,Yaw
FC(Br)(Br)Br,"1,2",4.715926407719208,1790.4,273.15,-1.74,132.39,CBr3F,tribromofluoromethane,353-54-8,199.55,Yaw
BrC(Br)(Br)Br,"1,2",5.4831364077192095,2539.1862,273.54,71.27,216.45,CBr4,carbon tetrabromide,558-13-4,364.15,Yaw
O=C(F)Cl,3,5.224086407719209,1187.2,273.15,-108.15,-32.0,CClFO,carbonyl chloride fluoride,353-49-1,130.45929867863853,ML
O=C(Cl)N(F)F,3,5.030896407719209,1347.34,273.15,-84.15,11.71,CClF2NO,difluorocarbamoyl chloride,16847-30-6,197.27102041837904,ML
FC(F)(F)Cl,"1,2",4.175486407719209,746.7453,260.34,-137.04,28.85,CClF3,chlorotrifluoromethane,75-72-9,92.0,Yaw
FC(F)(F)OCl,3,4.532286407719209,1025.0,273.15,-131.15,-30.9,CClF3O,trifluoromethyl hypochlorite,22082-78-6,132.45363106014022,ML
FC(F)(F)OOCl,3,4.861286407719208,1221.0,273.15,-92.05,-5.4,CClF3O2,chloroperoxytrifluoromethane,32755-26-3,141.15,Yaw
O=S(=O)(F)OC(F)(F)Cl,3,3.8364564077192087,965.468,214.792,-46.15,58.29,CClF3O3S,"fluorosulphuric acid, chlorodifluoromethyl ester",6069-31-4,169.4169009750522,ML
[O-][Cl+3]([O-])([O-])OC(F)(F)F,3,4.601986407719209,1301.0,273.15,-72.47,29.34,CClF3O4,"perchloric acid, trifluoromethyl ester",52003-45-9,160.12530818899614,ML
FC(F)(F)SCl,3,3.2497664077192088,639.89,197.5,-72.78,19.51,CClF3S,trifluoromethanesulfenyl chloride,421-17-0,155.27739349020842,ML
FN(F)C(F)(F)Cl,3,4.833806407719209,1388.77,273.15,-66.32,33.23,CClF4N,difluoro(difluoro-chloromethyl)amine,13880-71-2,132.77368855968294,ML
FC(F)(F)S(F)(F)(F)(F)Cl,3,4.609286407719209,1352.0,273.15,-64.83,40.67,CClF7S,chlorotetrafluoro-(trifluoromethyl)sulfur,42179-04-4,185.35419483675346,ML
FC(Cl)(Cl)I,3,4.833666407719209,1708.86,273.15,-18.65,103.86,CCl2FI,dichlorofluoroiodo-methane,420-48-4,176.7557044521371,ML
FC(F)(Cl)Cl,"1,2",4.041186407719208,865.3109,243.873,-97.75,111.97,CCl2F2,dichlorodifluoromethane,75-71-8,116.1,Yaw
FC(F)(F)N(Cl)Cl,3,4.650666407719209,1347.37,273.15,-66.86,36.62,CCl2F3N,"N,N-dichloro-1,1,1-trifluoromethylamine",13880-73-4,195.41818006682726,ML
FC(F)(F)N=S(Cl)Cl,3,3.073616407719209,824.684,173.735,-7.28,123.71,CCl2F3NS,trifluoromethyl-imidosulfurous dichloride,10564-47-3,182.43475875349736,ML
C[S](F)(F)(F)P(Cl)Cl,3,4.464186407719208,1655.0,273.15,-12.31,124.39,CCl2F3PS,dichloro(trifluoro-methylthio)phosphine,18799-78-5,248.01733494870453,ML
O=C(Cl)Cl,"1,2",4.250016407719208,1060.0797,241.87,-68.96,181.85,CCl2O,phosgene,75-44-5,145.37,Yaw
FC(Cl)(Cl)Cl,"1,2",4.114396407719209,1081.984,239.265,-58.79,197.96,CCl3F,trichlorofluoromethane,75-69-4,162.68,Yaw
O=[N+]([O-])C(Cl)(Cl)Cl,"1,2",5.737556407719209,2388.4332,304.281,9.23,135.05,CCl3NO2,trichloronitromethane,76-06-2,209.15,Yaw
N#C[Si](Cl)(Cl)Cl,3,4.870186407719209,1687.0,273.15,-46.15,96.07,CCl3NSi,trichlorosilane-carbonitrile,18157-01-2,218.5627388490907,ML
ClC(Cl)(Cl)Cl,"1,2",4.130196407719208,1278.4541,232.888,-22.82,283.2,CCl4,carbon tetrachloride,56-23-5,250.33,Yaw
N#CF,"1,2",4.572976407719208,871.731,236.627,-101.55,-32.52,CFN,cyanogen fluoride,1495-50-7,191.15,Yaw
O=[N+]([O-])C(F)([N+](=O)[O-])[N+](=O)[O-],"1,2",5.106046407719209,1821.07,273.15,-12.51,105.84,CFN3O6,fluorotrinitromethane,1840-42-2,244.25,Yaw
N#CS(=N)(=O)F,3,5.479286407719208,1945.0,273.15,-11.15,102.46,CF2N2OS,cyanoimidosulfuryl fluoride,19073-57-5,255.79346427287933,ML
O=[N+]([O-])C(F)(F)[N+](=O)[O-],3,6.989286407719209,2163.9,273.15,-29.2,50.39,CF2N2O4,difluorodinitro-methane,1185-11-1,247.7032512361974,ML
O=C(F)F,"1,2",4.134536407719208,623.7781,234.02,-130.32,-71.3,CF2O,carbonyl fluoride,353-50-4,161.89,Yaw
O=C(F)OS(=O)(=O)F,3,5.275936407719209,1898.665,314.573,-49.28,67.08,CF2O4S,fluoroformyl fluorosulfate,7519-54-2,240.9959415915524,ML
FC(F)=S,3,4.301286407719209,908.0,273.15,-126.27,-46.16,CF2S,thiocarbonyl fluoride,420-32-6,140.05318218631945,ML
FC(F)(F)I,"1,2",4.672856407719209,1174.29,273.15,-93.97,123.29,CF3I,trifluoroiodomethane,2314-97-8,120.0,Yaw
O=C(F)N=S(F)F,3,6.0597864077192085,1950.0,273.15,-53.15,65.46,CF3NOS,"S,S-difluoro-N-(fluoroformyl)-sulfilimine",3855-41-2,233.61579979576746,ML
O=S=NC(F)(F)F,3,4.852286407719209,1413.0,273.15,-63.29,37.31,CF3NOS,N-sulfinyltrifluoro-methanamine,10564-49-5,219.60709526749739,ML
O=C(F)N(OS(=O)(=O)F)S(=O)(=O)F,3,4.788686407719209,1895.0,273.15,10.98,149.12,CF3NO6S2,"N-(fluoroformyl)-N,O-bis-(fluorosulfonyl)-hydroxylamine",19252-48-3,302.28687183743085,ML
FC(F)(F)F,"1,2",4.070136407719208,536.0296,259.748,-169.67,-45.64,CF4,carbon tetrafluoride,75-73-0,89.54,Yaw
FOC(F)(F)F,"1,2",4.196996407719209,689.23,259.37,-145.97,-82.33,CF4O,trifluoromethylhypofluorite,373-91-1,104.1917401905658,ML
FC(F)F.O=S(F)F,3,5.442706407719209,1772.202,328.111,-86.12,16.56,CF4OS,trifluoromethane sulfinyl fluoride,812-12-4,160.70450999069115,ML
FN(F)OC(F)(F)F,3,4.494186407719209,968.6,273.15,-121.21,-42.15,CF5NO,pentafluoro-methoxyamine,4217-93-0,114.97081380401069,ML
C[S](F)(F)(F)P(F)F,3,4.205186407719209,1164.2,273.15,-81.86,25.05,CF6PS,difluoro(trifluoro-methylthio)phosphine,52752-65-5,195.58067924493434,ML
FC(F)(F)OS(F)(F)(F)(F)F,3,4.159726407719209,951.564,239.691,-82.16,6.91,CF8OS,pentafluoro(trifluoro-methoxy)sulfur,1873-23-0,185.71226058497476,ML
FC(F)(F)S(F)(F)(F)(F)F,"1,2",3.989366407719209,862.572,236.218,-89.28,-2.35,CF8S,(trifluoromethyl)sulfur pentafluoride,373-80-8,186.15,Yaw
FC(Cl)Br,"1,2",4.623326407719208,1429.3,273.15,-53.4,57.53,CHBrClF,bromochlorofluoromethane,593-98-6,158.15,Yaw
ClC(Cl)Br,"1,2",4.626276407719208,1679.3368,273.15,-15.07,115.32,CHBrCl2,bromodichloromethane,75-27-4,216.15,Yaw
FC(Br)I,3,4.6934664077192085,1765.448,273.15,-4.61,128.78,CHBrFI,bromofluoroiodo-methane,1512-27-2,200.09444206759858,ML
FC(F)Br,"1,2",4.294356407719208,1001.2154,248.627,-86.49,138.83,CHBrF2,bromodifluoromethane,1511-62-2,128.0,Yaw
BrC(Br)I,3,4.820736407719209,2212.9104,273.15,57.06,216.46,CHBr2I,dibromoiodomethane,593-94-2,283.1153405444139,ML
FC(Br)Br,"1,2",7.468346407719208,2524.676,273.15,-3.11,79.1,CHBr2F,dibromofluoromethane,1868-53-7,195.15,Yaw
BrC(Br)Br,"1,2",4.157896407719209,1512.0403,214.805,8.05,177.71,CHBr3,bromoform,75-25-2,281.2,Yaw
FC(F)Cl,"1,2",4.187396407719208,848.3508,243.376,-103.57,96.15,CHClF2,chlorodifluoromethane,75-45-6,115.73,Yaw
FC(Cl)Cl,"1,2",4.165296407719208,1020.7998,236.222,-67.39,178.43,CHCl2F,dichlorofluoromethane,75-43-4,142.8,Yaw
O=S(=O)(F)OC(Cl)Cl,3,5.119286407719208,1890.0,273.15,-3.15,119.11,CHCl2FO3S,"fluorosulfuric acid, dichloromethyl ester",42016-50-2,230.4079426740021,ML
ClC(Cl)I,"1,2",4.730756407719209,1916.664,273.15,16.75,159.53,CHCl2I,dichloroiodomethane,594-04-7,228.74465405973447,ML
ClC(Cl)Cl,"1,2",4.232076407719209,1233.0732,230.213,-28.5,263.25,CHCl3,chloroform,67-66-3,209.63,Yaw
ClC(Cl)[Ge](Cl)(Cl)Cl,3,4.1433064077192086,1568.57,209.02,39.85,199.22,CHCl5Ge,trichloro(dichloro-methyl)germane,21572-22-5,279.5584100561369,ML
FC(I)I,"1,2",4.016746407719209,1357.9,238.06,-7.81,156.99,CHFI2,fluorodiiodomethane,1493-01-2,238.65,Yaw
O=[N+]([O-])C(F)[N+](=O)[O-],3,5.769286407719209,2278.1,273.15,24.64,143.45,CHFN2O4,fluorodinitromethane,7182-87-8,253.59197317439484,ML
O=CF,"1,2",5.162776407719209,1273.4,273.15,-95.15,-11.23,CHFO,formyl fluoride,1493-02-3,130.95,Yaw
FC(F)I,"1,2",4.235636407719209,1170.9,254.84,-63.41,42.75,CHF2I,difluoroiodomethane,1493-03-4,151.15,Yaw
FC(F)F,"1,2",4.295786407719208,724.7979,250.743,-133.4,26.14,CHF3,fluoroform,75-46-7,118.02,Yaw
OOC(F)(F)F,3,5.6759864077192095,1614.5,273.15,-59.5,27.22,CHF3O2,trifluoromethyl hydroperoxide,16156-36-8,197.2926166869378,ML
O=S(=O)(O)C(F)(F)F,"1,2",5.701556407719208,2492.152,273.15,55.53,188.31,CHF3O3S,trifluoromethanesulfonic acid,1493-13-6,233.15,Yaw
FC(F)(F)S,3,4.249296407719209,920.653,254.64,-105.15,-21.46,CHF3S,trifluoromethanethiol,1493-15-8,137.63303597085826,ML
FC(F)[S],3,4.011596407719209,932.73,227.39,-69.1,23.98,CHF7S,(difluoromethyl)-sulfur,420-67-7,124.00011916902825,ML
IC(I)I,"1,2",3.604036407719208,969.2667,58.939,117.78,245.81,CHI3,iodoform,75-47-8,396.16,Yaw
N#CO,"1,2",4.668356407719209,1247.0196,243.792,-53.38,41.74,CHNO,cyanic acid,420-05-3,187.15,Yaw
ClCBr,"1,2",4.424656407719208,1357.0605,238.654,-23.43,90.44,CH2BrCl,bromochloromethane,74-97-5,185.2,Yaw
BrCBr,"1,2",4.362286407719209,1424.3958,229.675,-1.52,121.19,CH2Br2,dibromomethane,74-95-3,220.6,Yaw
FCCl,"1,2",4.315576407719209,1029.4612,247.695,-81.56,8.82,CH2ClF,chlorofluoromethane,593-70-4,138.0,Yaw
ClCCl,"1,2",4.2287764077192085,1151.4617,232.442,-43.97,236.85,CH2Cl2,dichloromethane,75-09-2,178.01,Yaw
ClC[Ge](Cl)(Cl)Cl,3,3.944576407719208,1381.55,197.33,29.85,181.85,CH2Cl4Ge,trichloro(chloro-methyl)germane,21572-18-9,246.30368247959328,ML
ClCO[Si](Cl)(Cl)Cl,3,5.514186407719208,2159.0,273.15,-0.15,140.99,CH2Cl4OSi,trichloro(chloro-methoxy)silane,18157-08-9,198.67518021448083,ML
Cl[Si](Cl)(Cl)C[Si](Cl)(Cl)Cl,3,5.229046407719208,2380.0,273.15,54.85,209.8,CH2Cl6Si2,bis(trichlorosilyl)methane,4142-85-2,256.3410343932373,ML
FCF,"1,2",4.409386407719208,863.5921,247.503,-110.21,78.11,CH2F2,difluoromethane,75-10-5,136.34,Yaw
ICI,"1,2",4.0750364077192085,1572.4651,204.877,59.14,213.13,CH2I2,diiodomethane,75-11-6,278.9,Yaw
C=O,"1,2",5.277346407719209,1194.1401,254.377,-92.0,-2.56,CH2O,formaldehyde,50-00-0,181.15,Yaw
O=CO,"1,2",4.083236407719209,1162.8529,184.037,8.4,314.85,CH2O2,formic acid,64-18-6,281.55,Yaw
C[As](Cl)Cl,3,5.317286407719209,2142.6,273.15,24.51,153.98,CH3AsCl2,methyldichloroarsine,593-89-5,222.75,Yaw
C[As](F)F,3,4.380126407719208,1276.0025,214.816,-15.0,98.0,CH3AsF2,methyldifluoroarsine,420-24-6,243.45,Yaw
CBr,"1,2",4.4662464077192086,1147.2897,253.43,-93.6,153.85,CH3Br,methyl bromide,74-83-9,179.55,Yaw
C[Hg]Br,3,7.092286407719209,3530.0,273.15,120.25,246.64,CH3BrHg,bromomethylmercury,506-83-2,403.4106257500578,ML
CCl,"1,2",4.2403664077192085,888.0835,235.586,-97.7,103.1,CH3Cl,methyl chloride,74-87-3,175.45,Yaw
C[Si](F)(Cl)Cl,3,4.864486407719209,1472.3,273.15,-54.88,49.48,CH3Cl2FSi,dichlorofluoro-methylsilane,420-58-6,170.03140045177588,ML
CP(Cl)Cl,3,5.236146407719209,1857.0,273.15,-12.22,103.13,CH3Cl2P,dichloromethylphosphine,676-83-5,228.3518216896946,ML
C[Ge](Cl)(Cl)Cl,3,4.162236407719209,1412.52,227.1,6.64,138.72,CH3Cl3Ge,trichloromethyl-germane,993-10-2,254.20360973323594,ML
C[Si](Cl)(Cl)Cl,"1,2",4.309596407719209,1371.1567,251.814,-30.32,243.85,CH3Cl3Si,methyl trichlorosilane,75-79-6,195.35,Yaw
CF,"1,2",4.277016407719208,754.1698,254.481,-141.8,44.13,CH3F,methyl fluoride,593-53-3,129.82,Yaw
CN(F)F,3,3.970056407719208,871.05,235.37,-86.49,2.04,CH3F2N,"N,N-difluoromethanamine",753-58-2,118.36653216856888,ML
CN=S(F)F,3,5.171986407719208,1498.46,273.15,-79.15,34.48,CH3F2NS,methylimidosulfurous difluoride,758-20-3,166.96855745238545,ML
C[Si](F)(F)F,"1,2",5.099876407719209,1239.2703,273.15,-95.62,-14.85,CH3F3Si,trifluoromethylsilane,373-74-0,156.5825317659504,ML
C[Hg]I,3,6.622386407719208,3393.7,273.15,125.96,263.71,CH3HgI,iodomethylmercury,143-36-2,416.65,Yaw
CI,"1,2",4.4467764077192085,1315.1641,253.207,-66.45,64.03,CH3I,methyl iodide,74-88-4,206.7,Yaw
NC=O,"1,2",4.757226407719209,2012.7029,203.234,99.97,248.43,CH3NO,formamide,75-12-7,275.7,Yaw
CN=S=O,3,5.044196407719209,1659.95,273.15,-33.45,76.82,CH3NOS,N-sulfinylmethanamine,4291-05-8,238.09748167913594,ML
CO[N+](=O)[O-],"1,2",4.465266407719208,1351.0264,237.714,-24.82,88.27,CH3NO3,methyl nitrate,598-58-3,190.86,Yaw
C,"1,2",3.9629564077192088,435.4534,271.361,-196.85,-82.59,CH4,methane,74-82-8,90.69,Yaw
C[SiH](F)Cl,3,4.725786407719209,1296.6,273.15,-76.89,19.88,CH4ClFSi,chlorofluoro-methylsilane,373-67-1,145.4282001571796,ML
C[GeH](Cl)Cl,3,3.9902664077192087,1383.99,233.17,2.56,141.97,CH4Cl2Ge,dichloromethyl-germane,1111-82-6,177.80588827236272,ML
[SiH3]OC(Cl)Cl,3,4.9591864077192085,1600.0,273.15,-39.23,70.33,CH4Cl2OSi,dichloromethoxy-silane,6485-89-8,186.45935976987712,ML
C[SiH](Cl)Cl,"1,2",4.388156407719209,1279.3211,250.69,-46.62,63.26,CH4Cl2Si,methyl dichlorosilane,75-54-7,182.55,Yaw
FC(F)[SiH3],3,4.884686407719209,1160.4,273.15,-101.63,-19.99,CH4F2Si,difluoromethylsilane,420-34-8,139.16504284418832,ML
CO,"1,2",5.2032264077192085,1580.4585,239.096,-15.99,199.45,CH4O,methyl alcohol,67-56-1,175.61,Yaw
CS,"1,2",4.192206407719208,1008.9751,234.729,-68.59,156.8,CH4S,methyl mercaptan,74-93-1,150.18,Yaw
C[SiH2]Cl,3,4.166436407719209,1054.7751,244.46,-70.04,28.42,CH5ClSi,methyl chlorosilane,993-00-0,139.05,Yaw
[SiH3]CCl,3,5.212206407719208,1719.28,298.6,-56.21,51.48,CH5ClSi,(chloromethyl)silane,10112-09-1,147.74759841445538,ML
FC[GeH3],3,5.532186407719209,1728.0,273.15,-47.15,57.18,CH5FGe,fluoromethyl germane,30123-02-5,121.89749531222607,ML
CN,"1,2",4.484296407719208,1025.612,235.062,-93.46,116.9,CH5N,methylamine,74-89-5,179.69,Yaw
CN.Cl,"1,2",4.6702164077192085,3176.4452,273.15,211.73,453.86,CH6ClN,methylamine hydrochloride,593-51-1,500.65,Yaw
CS[GeH3],3,4.346536407719209,1556.15,273.15,-50.15,111.51,CH6GeS,(methylthio)germane,16643-16-6,167.28379933230372,ML
CNN,"1,2",3.6827664077192086,997.6946,180.059,-0.73,115.76,CH6N2,methylhydrazine,60-34-4,220.79,Yaw
CO[SiH3],3,1.0993064077192083,185.6317,149.984,-90.2,82.56,CH6OSi,methyl silyl ether,2171-96-2,140.88026723345806,ML
C[SiH3],3,4.226066407719209,873.3901,263.567,-120.55,-41.05,CH6Si,methyl silane,992-94-9,116.34,Yaw
[SiH3]C[SiH2]Cl,3,4.957596407719208,1674.13,273.15,-28.34,86.37,CH7ClSi2,[(chlorosilyl)methyl]-silane,35483-45-5,160.27790428850378,ML
[SiH3][SiH2]CCl,3,5.212006407719208,1875.07,273.15,-23.15,108.66,CH7ClSi2,(chloromethyl)-disilane,54713-74-5,174.50773046680047,ML
IC(I)(I)I,3,4.144266407719209,2058.5919,167.532,174.14,368.11,CI4,carbon tetraiodide,507-25-5,444.15,Yaw
N#C[Na],3,4.723076407719208,8476.9617,298.798,984.83,1618.18,CNNa,sodium cyanide,143-33-9,836.85,Yaw
O=[N+]([O-])C([N+](=O)[O-])([N+](=O)[O-])[N+](=O)[O-],"1,2",5.445946407719209,2186.3824,275.42,18.0,149.54,CN4O8,tetranitromethane,509-14-8,287.05,Yaw
[C-]#[O+],"1,2",3.847466407719208,295.2279,268.243,-216.7,-140.29,CO,carbon monoxide,630-08-0,68.16,Yaw
O=C=S,"1,2",4.126506407719209,833.1578,252.064,-113.37,105.62,COS,carbonyl sulfide,463-58-1,134.3,Yaw
O=C=[Se],3,4.288306407719209,1024.3828,260.378,-94.33,-3.47,COSe,carbon oxyselenide,1603-84-5,151.15,Yaw
S=C=S,"1,2",4.345216407719208,1305.4917,254.394,-44.71,238.85,CS2,carbon disulfide,75-15-0,161.58,Yaw
[Se]=C=[Se],3,3.935516407719208,1364.5803,221.235,13.38,154.22,CSe2,carbon diselenide,506-80-9,229.45,Yaw
FC(F)(F)[As](Cl)C(F)(F)F,3,5.327736407719209,1705.61,275.05,-65.15,64.26,C2AsClF6,chlorobis(trifluoromethyl)arsine,359-53-5,194.29685347757177,ML
[O-][Cl+3]([O-])([O-])OC(F)(Cl)C(F)(F)Br,3,5.716006407719208,2217.9,273.15,-0.15,136.44,C2BrClF3O4,"1,2,2-trifluoro-1-chloro-2-bromoethyl perchlorate",900001-86-7,255.7633851664059,ML
O=C(Br)C(Cl)(Cl)Cl,"1,2",4.305436407719209,1612.9888,231.64,29.1,171.16,C2BrCl3O,trichloroacetyl bromide,34069-94-8,271.42717741495517,ML
FC(F)=C(F)Br,"1,2",4.065306407719208,998.6736,246.808,-78.85,18.5,C2BrF3,bromotrifluoroethylene,598-73-2,136.32490924943394,ML
FC(F)(F)C(F)(F)Br,"1,2",4.549246407719209,1147.0931,273.15,-94.75,-3.13,C2BrF5,bromopentafluoroethane,354-55-2,159.0319243795782,ML
FC(F)(Br)C(F)(Cl)Br,"1,2",3.850986407719208,1166.348,209.87,-6.38,118.68,C2Br2ClF3,"1,2-dibromo-1-chloro-1,2,2-trifluoroethane",354-51-8,182.65,Yaw
FC(Cl)(Br)C(F)(Cl)Br,3,4.934286407719209,2037.6,273.15,25.83,166.63,C2Br2Cl2F2,"1,2-dibromo-1,2-dichlorodifluoroethane",421-69-2,276.64212935639824,ML
FC(F)(Br)C(Cl)(Cl)Br,3,4.934286407719209,2033.1,273.15,25.17,165.66,C2Br2Cl2F2,"1,2-dibromo-1,1-dichlorodifluoroethane",558-57-6,308.0343981581134,ML
FC(F)(Br)C(F)(F)Br,"1,2",4.1777964077192085,1207.6931,242.224,-42.89,214.65,C2Br2F4,"1,2-dibromotetrafluoroethane",124-73-2,163.0,Yaw
FC(F)(F)C(Br)(Br)Br,3,4.971286407719209,1922.3,273.15,7.39,138.46,C2Br3F3,"1,1,1-tribromo-2,2,2-trifluoroethane",354-48-3,280.68591099573695,ML
FC(F)=C(F)Cl,"1,2",4.156476407719208,881.5941,240.451,-94.43,106.0,C2ClF3,chlorotrifluoroethylene,79-38-9,115.0,Yaw
O=C(Cl)OC(F)(F)F,3,3.6227264077192087,849.32,227.22,-78.15,28.47,C2ClF3O2,trifluoromethyl chloroformate,23213-83-4,177.4628857306035,ML
O=C(OS(=O)(=O)F)C(F)(F)Cl,3,4.4215064077192086,1293.44,214.11,-8.88,99.8,C2ClF3O4S,difluorochloroacetic fluorosulfonic anhydride,6069-32-5,244.62165401441658,ML
FC(F)(F)C(F)(F)Cl,"1,2",4.029336407719208,854.2785,249.665,-105.12,79.95,C2ClF5,chloropentafluoroethane,76-15-3,173.75,Yaw
FC(F)(F)C(F)(F)OCl,3,3.872506407719209,855.5,229.11,-80.41,10.43,C2ClF5O,"hypochlorous acid, pentafluoroethyl ester",22675-67-8,178.54340066578538,ML
[O-][Cl+3]([O-])([O-])OC(F)(F)C(F)(F)F,3,4.754786407719209,1430.8,273.15,-57.53,48.11,C2ClF5O4,"perchloric acid, pentafluoroethyl ester",53011-52-2,203.70904857703727,ML
OC(F)(F)C(O)(F)Cl,3,2.1942364077192087,473.738,83.873,32.38,166.36,C2ClF5O6S2,"1-chloro-1,2,2-trifluoro-1,2-ethanediol",1957-17-1,323.52956136197366,ML
FC(F)(F)C(F)(F)S(F)(F)(F)(F)Cl,3,4.619286407719208,1497.0,273.15,-42.85,73.52,C2ClF9S,chlorotetrafluoro-(pentafluoroethyl)-sulfur,42769-85-7,201.16593000149365,ML
FC(F)=C(Cl)Cl,"1,2",4.218926407719208,1058.3177,232.0,-58.5,38.29,C2Cl2F2,"1,1-dichloro-2,2-difluoroethene",79-35-6,157.15,Yaw
FC(Cl)=C(F)Cl,"1,2",4.170506407719208,1053.6527,231.294,-57.17,41.0,C2Cl2F2,"1,2-dichloro-1,2-difluoroethene",598-88-9,142.65,Yaw
O=C(F)C(F)(Cl)Cl,3,3.9114164077192086,1297.37,290.61,-66.63,68.73,C2Cl2F2O,dichlorofluoroacetyl fluoride,354-18-7,192.5696769860574,ML
O=C(N=S(Cl)Cl)C(F)(F)F,3,5.652186407719208,2309.0,273.15,32.85,158.35,C2Cl2F3NOS,"S,S-dichloro-N-(trifluoroacetyl)-sulfilimine",24433-67-8,282.8102671329967,ML
FC(F)(Cl)C(F)(F)Cl,"1,2",4.057366407719209,971.7388,235.91,-92.52,145.68,C2Cl2F4,"1,2-dichloro-1,1,2,2-tetrafluoroethane",76-14-2,180.63,Yaw
FC(F)(F)C(F)(Cl)Cl,"1,2",3.945116407719208,910.5268,227.948,-71.66,145.4,C2Cl2F4,"1,1-dichloro-1,2,2,2-tetrafluoroethane",374-07-2,216.58,Yaw
[O-][Cl+3]([O-])([O-])OC(F)(F)C(F)(F)Cl,3,3.749576407719209,1088.51,217.42,-24.15,98.22,C2Cl2F4O4,"1,1,2,2-tetrafluoro-2-chloroethyl perchlorate",38126-28-2,216.4851117428881,ML
FC(F)(F)C(F)(F)N=S(Cl)Cl,3,5.150186407719209,1956.0,273.15,5.05,130.22,C2Cl2F5NS,"S,S-dichloro-N-(pentafluoroethyl)-sulfilimine",10564-48-4,196.20250484724275,ML
FC(F)(Cl)C(F)(Cl)Cl,"1,2",4.0774064077192085,1139.7442,231.677,-40.39,214.06,C2Cl3F3,"1,1,2-trichloro-1,2,2-trifluoroethane",76-13-1,236.93,Yaw
[O-][Cl+3]([O-])([O-])OC(F)(Cl)C(F)(F)Cl,3,3.2637364077192084,1405.23,273.15,-0.15,201.16,C2Cl3F3O4,"1,2,2-trifluoro-1,2-dichloroethyl perchlorate",38126-27-1,246.60100557177643,ML
N#CC(Cl)(Cl)Cl,"1,2",4.416936407719208,1438.4046,239.957,-16.0,109.52,C2Cl3N,trichloroacetonitrile,545-06-2,231.15,Yaw
ClC(Cl)=C(Cl)Cl,"1,2",4.195886407719208,1460.3201,226.986,13.33,148.22,C2Cl4,tetrachloroethylene,127-18-4,250.8,Yaw
[O-][Cl+3]([O-])([O-])OC(F)(Cl)C(F)(Cl)Cl,3,3.1992164077192085,1578.53,273.15,-0.15,271.51,C2Cl4F2O4,"1,2-difluoro-1,1,2-trichloroethyl perchlorate",38126-29-3,290.08882402014973,ML