smiles,code,A [log10(atm)],B [C],C [C],TMIN [C],TMAX [C],FORMULA,NAME,CAS No,mp [K],mp_type
C=CCCC(=O)CC(C)C,2,3.537766407719209,1474.6938,205.087,67.07,250.52,C9H16O,2-methyl-7-octen-4-one,54298-97-4,252.1772839736487,ML
C=CC(=O)CC(C)CCC,2,3.537766407719209,1474.6938,205.087,67.07,250.52,C9H16O,5-methyl-1-octen-3-one,116836-13-6,225.63835781375096,ML
CCCC(=O)C=CC(C)C,2,3.537766407719209,1474.6938,205.087,67.07,250.52,C9H16O,7-methyl-5-octen-4-one,32064-78-1,247.35021610667425,ML
CCCCCCC#CCO,3,5.107356407719209,2143.9796,193.026,114.0,253.0,C9H16O,2-nonyn-1-ol,5921-73-3,257.15,Yaw
CCCCCC#CCCO,3,5.107356407719209,2143.9796,193.026,114.0,253.0,C9H16O,3-nonyn-1-ol,31333-13-8,257.15,Yaw
CCCCC#CCCCO,3,5.107356407719209,2143.9796,193.026,114.0,253.0,C9H16O,4-nonyn-1-ol,---,257.15,Yaw
CCCC#CCCCCO,3,5.107356407719209,2143.9796,193.026,114.0,253.0,C9H16O,5-nonyn-1-ol,---,257.15,Yaw
CCC#CCCCCCO,3,5.107356407719209,2143.9796,193.026,114.0,253.0,C9H16O,6-nonyn-1-ol,---,257.15,Yaw
CC#CCCCCCCO,3,5.107356407719209,2143.9796,193.026,114.0,253.0,C9H16O,7-nonyn-1-ol,---,257.15,Yaw
C#CCCCCCCCO,3,5.107356407719209,2143.9796,193.026,114.0,253.0,C9H16O,8-nonyn-1-ol,---,257.15,Yaw
CCCCCC#CC(C)O,3,5.107356407719209,2143.9796,193.026,114.0,253.0,C9H16O,3-nonyn-2-ol,---,257.15,Yaw
CCCCC#CCC(C)O,3,5.107356407719209,2143.9796,193.026,114.0,253.0,C9H16O,4-nonyn-2-ol,---,257.15,Yaw
CCCC#CCCC(C)O,3,5.107356407719209,2143.9796,193.026,114.0,253.0,C9H16O,5-nonyn-2-ol,---,257.15,Yaw
CCC#CCCCC(C)O,3,5.107356407719209,2143.9796,193.026,114.0,253.0,C9H16O,6-nonyn-2-ol,---,257.15,Yaw
CC#CCCCCC(C)O,3,5.107356407719209,2143.9796,193.026,114.0,253.0,C9H16O,7-nonyn-2-ol,---,257.15,Yaw
C#CCCCCCC(C)O,3,5.107356407719209,2143.9796,193.026,114.0,253.0,C9H16O,8-nonyn-2-ol,---,257.15,Yaw
C#CC(O)CCCCCC,3,5.107356407719209,2143.9796,193.026,114.0,253.0,C9H16O,1-nonyn-3-ol,7383-20-2,257.15,Yaw
CCCCC#CC(O)CC,3,5.107356407719209,2143.9796,193.026,114.0,253.0,C9H16O,4-nonyn-3-ol,---,257.15,Yaw
CCCC#CCC(O)CC,3,5.107356407719209,2143.9796,193.026,114.0,253.0,C9H16O,5-nonyn-3-ol,---,257.15,Yaw
CCC#CCCC(O)CC,3,5.107356407719209,2143.9796,193.026,114.0,253.0,C9H16O,6-nonyn-3-ol,---,257.15,Yaw
CC#CCCCC(O)CC,3,5.107356407719209,2143.9796,193.026,114.0,253.0,C9H16O,7-nonyn-3-ol,---,257.15,Yaw
C#CCCCCC(O)CC,3,5.107356407719209,2143.9796,193.026,114.0,253.0,C9H16O,8-nonyn-3-ol,---,257.15,Yaw
CCCC#CC(O)CCC,3,5.107356407719209,2143.9796,193.026,114.0,253.0,C9H16O,5-nonyn-4-ol,---,257.15,Yaw
CCC#CCC(O)CCC,3,5.107356407719209,2143.9796,193.026,114.0,253.0,C9H16O,6-nonyn-4-ol,---,257.15,Yaw
CC#CCCC(O)CCC,3,5.107356407719209,2143.9796,193.026,114.0,253.0,C9H16O,7-nonyn-4-ol,---,257.15,Yaw
C#CCCCC(O)CCC,3,5.107356407719209,2143.9796,193.026,114.0,253.0,C9H16O,8-nonyn-4-ol,---,257.15,Yaw
CCC#CC(O)CCCC,3,5.107356407719209,2143.9796,193.026,114.0,253.0,C9H16O,6-nonyn-5-ol,---,257.15,Yaw
CC#CCC(O)CCCC,3,5.107356407719209,2143.9796,193.026,114.0,253.0,C9H16O,7-nonyn-5-ol,---,257.15,Yaw
C#CCCC(O)CCCC,3,5.107356407719209,2143.9796,193.026,114.0,253.0,C9H16O,8-nonyn-5-ol,---,257.15,Yaw
CCCCC(C)C#CCO,3,5.107356407719209,2143.9796,193.026,114.0,253.0,C9H16O,4-methyl-2-octyn-1-ol,---,257.15,Yaw
CCCC(C)CC#CCO,3,5.107356407719209,2143.9796,193.026,114.0,253.0,C9H16O,5-methyl-2-octyn-1-ol,---,257.15,Yaw
CCC(C)CCC#CCO,3,5.107356407719209,2143.9796,193.026,114.0,253.0,C9H16O,6-methyl-2-octyn-1-ol,---,257.15,Yaw
CC(C)CCCC#CCO,3,5.107356407719209,2143.9796,193.026,114.0,253.0,C9H16O,7-methyl-2-octyn-1-ol,---,257.15,Yaw
CCCCC#CC(C)CO,3,5.107356407719209,2143.9796,193.026,114.0,253.0,C9H16O,2-methyl-3-octyn-1-ol,---,257.15,Yaw
CCCC(C)C#CCCO,3,5.107356407719209,2143.9796,193.026,114.0,253.0,C9H16O,5-methyl-3-octyn-1-ol,---,257.15,Yaw
CCC(C)CC#CCCO,3,5.107356407719209,2143.9796,193.026,114.0,253.0,C9H16O,6-methyl-3-octyn-1-ol,---,257.15,Yaw
CC(C)CCC#CCCO,3,5.107356407719209,2143.9796,193.026,114.0,253.0,C9H16O,7-methyl-3-octyn-1-ol,---,257.15,Yaw
CCCC#CCC(C)CO,3,5.107356407719209,2143.9796,193.026,114.0,253.0,C9H16O,2-methyl-4-octyn-1-ol,---,257.15,Yaw
CCCC#CC(C)CCO,3,5.107356407719209,2143.9796,193.026,114.0,253.0,C9H16O,3-methyl-4-octyn-1-ol,---,257.15,Yaw
CCC(C)C#CCCCO,3,5.107356407719209,2143.9796,193.026,114.0,253.0,C9H16O,6-methyl-4-octyn-1-ol,---,257.15,Yaw
CC(C)CC#CCCCO,3,5.107356407719209,2143.9796,193.026,114.0,253.0,C9H16O,7-methyl-4-octyn-1-ol,---,257.15,Yaw
CCC#CCCC(C)CO,3,5.107356407719209,2143.9796,193.026,114.0,253.0,C9H16O,2-methyl-5-octyn-1-ol,---,257.15,Yaw
CCC#CCC(C)CCO,3,5.107356407719209,2143.9796,193.026,114.0,253.0,C9H16O,3-methyl-5-octyn-1-ol,---,257.15,Yaw
CCC#CC(C)CCCO,3,5.107356407719209,2143.9796,193.026,114.0,253.0,C9H16O,4-methyl-5-octyn-1-ol,---,257.15,Yaw
CC(C)C#CCCCCO,3,5.107356407719209,2143.9796,193.026,114.0,253.0,C9H16O,7-methyl-5-octyn-1-ol,---,257.15,Yaw
CC#CCCCC(C)CO,3,5.107356407719209,2143.9796,193.026,114.0,253.0,C9H16O,2-methyl-6-octyn-1-ol,---,257.15,Yaw
CC#CCCC(C)CCO,3,5.107356407719209,2143.9796,193.026,114.0,253.0,C9H16O,3-methyl-6-octyn-1-ol,---,257.15,Yaw
CC#CCC(C)CCCO,3,5.107356407719209,2143.9796,193.026,114.0,253.0,C9H16O,4-methyl-6-octyn-1-ol,---,257.15,Yaw
CC#CC(C)CCCCO,3,5.107356407719209,2143.9796,193.026,114.0,253.0,C9H16O,5-methyl-6-octyn-1-ol,---,257.15,Yaw
C#CCCCCC(C)CO,3,5.107356407719209,2143.9796,193.026,114.0,253.0,C9H16O,2-methyl-7-octyn-1-ol,---,257.15,Yaw
C#CCCCC(C)CCO,3,5.107356407719209,2143.9796,193.026,114.0,253.0,C9H16O,3-methyl-7-octyn-1-ol,---,257.15,Yaw
C#CCCC(C)CCCO,3,5.107356407719209,2143.9796,193.026,114.0,253.0,C9H16O,4-methyl-7-octyn-1-ol,---,257.15,Yaw
C#CCC(C)CCCCO,3,5.107356407719209,2143.9796,193.026,114.0,253.0,C9H16O,5-methyl-7-octyn-1-ol,---,257.15,Yaw
C#CC(C)CCCCCO,3,5.107356407719209,2143.9796,193.026,114.0,253.0,C9H16O,6-methyl-7-octyn-1-ol,---,257.15,Yaw
CCCCC#CC(C)(C)O,3,5.107356407719209,2143.9796,193.026,114.0,253.0,C9H16O,2-methyl-3-octyn-2-ol,---,257.15,Yaw
C#CC(C)(O)CCCCC,3,5.107356407719209,2143.9796,193.026,114.0,253.0,C9H16O,3-methyl-1-octyn-3-ol,23580-51-0,257.15,Yaw
CCCC#CC(C)(O)CC,3,5.107356407719209,2143.9796,193.026,114.0,253.0,C9H16O,3-methyl-4-octyn-3-ol,---,257.15,Yaw
C#CCC(C)(O)CCCC,3,5.107356407719209,2143.9796,193.026,114.0,253.0,C9H16O,4-methyl-1-octyn-4-ol,---,257.15,Yaw
CC#CC(O)CCC(C)C,3,5.107356407719209,2143.9796,193.026,114.0,253.0,C9H16O,7-methyl-2-octyn-4-ol,---,257.15,Yaw
CCC=CCCC=CCO,2,4.046276407719208,1666.4308,205.087,76.07,239.86,C9H16O,"2,6-nonadien-1-ol",7786-44-9,276.5225846885789,ML
C=CCC(C)C=C(C)CO,2,4.046276407719208,1666.4308,205.087,76.07,239.86,C9H16O,"2,4-dimethyl-2,6-heptadien-1-ol, isomers",80192-56-9,295.76512812178004,ML
CCCCCCC=CC=O,2,4.384936407719208,1781.9819,199.63,84.77,236.71,C9H16O,2-nonenal,2463-53-8,245.15,Yaw
CCCCCC=CCC=O,2,4.384936407719208,1781.9819,199.63,84.77,236.71,C9H16O,3-nonenal,31823-43-5,245.15,Yaw
CCCCC=CCCC=O,2,4.384936407719208,1781.9819,199.63,84.77,236.71,C9H16O,4-nonenal,2277-16-9,245.15,Yaw
CCCC=CCCCC=O,2,4.384936407719208,1781.9819,199.63,84.77,236.71,C9H16O,5-nonenal,---,245.15,Yaw
CCC=CCCCCC=O,2,4.384936407719208,1781.9819,199.63,84.77,236.71,C9H16O,6-nonenal,2277-19-2,245.15,Yaw
CC=CCCCCCC=O,2,4.384936407719208,1781.9819,199.63,84.77,236.71,C9H16O,7-nonenal,---,245.15,Yaw
C=CCCCCCCC=O,2,4.039536407719209,1652.8459,202.41,76.77,239.7,C9H16O,8-nonenal,---,245.15,Yaw
CCCCCC=C(C)C=O,2,4.039536407719209,1652.8459,202.41,76.77,239.7,C9H16O,2-methyl-2-octenal,73757-27-4,245.15,Yaw
CCCCCC(C)=CC=O,2,4.039536407719209,1652.8459,202.41,76.77,239.7,C9H16O,3-methyl-2-octenal,---,245.15,Yaw
CCCCC(C)C=CC=O,2,4.039536407719209,1652.8459,202.41,76.77,239.7,C9H16O,4-methyl-2-octenal,---,245.15,Yaw
CCCC(C)CC=CC=O,2,4.039536407719209,1652.8459,202.41,76.77,239.7,C9H16O,5-methyl-2-octenal,---,245.15,Yaw
CCC(C)CCC=CC=O,2,4.039536407719209,1652.8459,202.41,76.77,239.7,C9H16O,6-methyl-2-octenal,---,245.15,Yaw
CC(C)CCCC=CC=O,2,4.039536407719209,1652.8459,202.41,76.77,239.7,C9H16O,7-methyl-2-octenal,---,245.15,Yaw
CCCCC=CC(C)C=O,2,4.039536407719209,1652.8459,202.41,76.77,239.7,C9H16O,2-methyl-3-octenal,---,245.15,Yaw
CCCCC=C(C)CC=O,2,4.039536407719209,1652.8459,202.41,76.77,239.7,C9H16O,3-methyl-3-octenal,---,245.15,Yaw
CCCCC(C)=CCC=O,2,4.039536407719209,1652.8459,202.41,76.77,239.7,C9H16O,4-methyl-3-octenal,---,245.15,Yaw
CCCC(C)C=CCC=O,2,4.039536407719209,1652.8459,202.41,76.77,239.7,C9H16O,5-methyl-3-octenal,---,245.15,Yaw
CCC(C)CC=CCC=O,2,4.039536407719209,1652.8459,202.41,76.77,239.7,C9H16O,6-methyl-3-octenal,---,245.15,Yaw
CC(C)CCC=CCC=O,2,4.039536407719209,1652.8459,202.41,76.77,239.7,C9H16O,7-methyl-3-octenal,---,245.15,Yaw
CCCC=CCC(C)C=O,2,4.039536407719209,1652.8459,202.41,76.77,239.7,C9H16O,2-methyl-4-octenal,---,245.15,Yaw
CCCC=CC(C)CC=O,2,4.039536407719209,1652.8459,202.41,76.77,239.7,C9H16O,3-methyl-4-octenal,---,245.15,Yaw
CCCC=C(C)CCC=O,2,4.039536407719209,1652.8459,202.41,76.77,239.7,C9H16O,4-methyl-4-octenal,---,245.15,Yaw
CCCC(C)=CCCC=O,2,4.039536407719209,1652.8459,202.41,76.77,239.7,C9H16O,5-methyl-4-octenal,---,245.15,Yaw
CCC(C)C=CCCC=O,2,4.039536407719209,1652.8459,202.41,76.77,239.7,C9H16O,6-methyl-4-octenal,---,245.15,Yaw
CC(C)CC=CCCC=O,2,4.039536407719209,1652.8459,202.41,76.77,239.7,C9H16O,7-methyl-4-octenal,---,245.15,Yaw
CCC=CCCC(C)C=O,2,4.039536407719209,1652.8459,202.41,76.77,239.7,C9H16O,2-methyl-5-octenal,---,245.15,Yaw
CCC=CCC(C)CC=O,2,4.039536407719209,1652.8459,202.41,76.77,239.7,C9H16O,3-methyl-5-octenal,---,245.15,Yaw
CCC=CC(C)CCC=O,2,4.039536407719209,1652.8459,202.41,76.77,239.7,C9H16O,4-methyl-5-octenal,---,245.15,Yaw
CCC=C(C)CCCC=O,2,4.039536407719209,1652.8459,202.41,76.77,239.7,C9H16O,5-methyl-5-octenal,---,245.15,Yaw
CCC(C)=CCCCC=O,2,4.039536407719209,1652.8459,202.41,76.77,239.7,C9H16O,6-methyl-5-octenal,---,245.15,Yaw
CC(C)C=CCCCC=O,2,4.039536407719209,1652.8459,202.41,76.77,239.7,C9H16O,7-methyl-5-octenal,---,245.15,Yaw
CC=CCCCC(C)C=O,2,4.039536407719209,1652.8459,202.41,76.77,239.7,C9H16O,2-methyl-6-octenal,---,245.15,Yaw
CC=CCCC(C)CC=O,2,4.039536407719209,1652.8459,202.41,76.77,239.7,C9H16O,3-methyl-6-octenal,---,245.15,Yaw
CC=CCC(C)CCC=O,2,4.039536407719209,1652.8459,202.41,76.77,239.7,C9H16O,4-methyl-6-octenal,---,245.15,Yaw
CC=CC(C)CCCC=O,2,4.039536407719209,1652.8459,202.41,76.77,239.7,C9H16O,5-methyl-6-octenal,---,245.15,Yaw
CC=C(C)CCCCC=O,2,4.039536407719209,1652.8459,202.41,76.77,239.7,C9H16O,6-methyl-6-octenal,---,245.15,Yaw
CC(C)=CCCCCC=O,2,4.039536407719209,1652.8459,202.41,76.77,239.7,C9H16O,7-methyl-6-octenal,---,245.15,Yaw
C=CCCCCC(C)C=O,2,4.039536407719209,1652.8459,202.41,76.77,239.7,C9H16O,2-methyl-7-octenal,---,245.15,Yaw
C=CCCCC(C)CC=O,2,4.039536407719209,1652.8459,202.41,76.77,239.7,C9H16O,3-methyl-7-octenal,---,245.15,Yaw
C=CCCC(C)CCC=O,2,4.039536407719209,1652.8459,202.41,76.77,239.7,C9H16O,4-methyl-7-octenal,---,245.15,Yaw
C=CCC(C)CCCC=O,2,4.039536407719209,1652.8459,202.41,76.77,239.7,C9H16O,5-methyl-7-octenal,---,245.15,Yaw
C=CC(C)CCCCC=O,2,4.039536407719209,1652.8459,202.41,76.77,239.7,C9H16O,6-methyl-7-octenal,---,245.15,Yaw
C=C(C)CCCCCC=O,2,4.039536407719209,1652.8459,202.41,76.77,239.7,C9H16O,7-methyl-7-octenal,---,245.15,Yaw
CCCCC(C)=C(C)C=O,2,3.734186407719209,1538.288,205.19,68.77,242.88,C9H16O,"2,3-dimethyl-2-heptenal",---,245.15,Yaw
CCCC(C)C=C(C)C=O,2,3.734186407719209,1538.288,205.19,68.77,242.88,C9H16O,"2,4-dimethyl-2-heptenal",---,245.15,Yaw
CCC(C)CC=C(C)C=O,2,3.734186407719209,1538.288,205.19,68.77,242.88,C9H16O,"2,5-dimethyl-2-heptenal",---,245.15,Yaw
CC(C=O)=CCCC(C)C,2,3.734186407719209,1538.288,205.19,68.77,242.88,C9H16O,"2,6-dimethyl-2-heptenal",---,245.15,Yaw
CCCC=CC(C)(C)C=O,2,3.734186407719209,1538.288,205.19,68.77,242.88,C9H16O,"2,2-dimethyl-3-heptenal",---,245.15,Yaw
CCCC=C(C)C(C)C=O,2,3.734186407719209,1538.288,205.19,68.77,242.88,C9H16O,"2,3-dimethyl-3-heptenal",---,245.15,Yaw
CCCC(C)=CC(C)C=O,2,3.734186407719209,1538.288,205.19,68.77,242.88,C9H16O,"2,4-dimethyl-3-heptenal",---,245.15,Yaw
CCC(C)C=CC(C)C=O,2,3.734186407719209,1538.288,205.19,68.77,242.88,C9H16O,"2,5-dimethyl-3-heptenal",---,245.15,Yaw
CC(C=O)C=CCC(C)C,2,3.734186407719209,1538.288,205.19,68.77,242.88,C9H16O,"2,6-dimethyl-3-heptenal",---,245.15,Yaw
CCC=CCC(C)(C)C=O,2,3.734186407719209,1538.288,205.19,68.77,242.88,C9H16O,"2,2-dimethyl-4-heptenal",---,245.15,Yaw
CCC=CC(C)C(C)C=O,2,3.734186407719209,1538.288,205.19,68.77,242.88,C9H16O,"2,3-dimethyl-4-heptenal",---,245.15,Yaw
CCC=C(C)CC(C)C=O,2,3.734186407719209,1538.288,205.19,68.77,242.88,C9H16O,"2,4-dimethyl-4-heptenal",---,245.15,Yaw
CCC(C)=CCC(C)C=O,2,3.734186407719209,1538.288,205.19,68.77,242.88,C9H16O,"2,5-dimethyl-4-heptenal",---,245.15,Yaw
CC(C)C=CCC(C)C=O,2,3.734186407719209,1538.288,205.19,68.77,242.88,C9H16O,"2,6-dimethyl-4-heptenal",---,245.15,Yaw
CC=CCCC(C)(C)C=O,2,3.734186407719209,1538.288,205.19,68.77,242.88,C9H16O,"2,2-dimethyl-5-heptenal",---,245.15,Yaw
CC=CCC(C)C(C)C=O,2,3.734186407719209,1538.288,205.19,68.77,242.88,C9H16O,"2,3-dimethyl-5-heptenal",---,245.15,Yaw
CC=CC(C)CC(C)C=O,2,3.734186407719209,1538.288,205.19,68.77,242.88,C9H16O,"2,4-dimethyl-5-heptenal",---,245.15,Yaw
CC=C(C)CCC(C)C=O,2,3.734186407719209,1538.288,205.19,68.77,242.88,C9H16O,"2,5-dimethyl-5-heptenal",---,245.15,Yaw
CC(C)=CCCC(C)C=O,2,3.734186407719209,1538.288,205.19,68.77,242.88,C9H16O,"2,6-dimethyl-5-heptenal",106-72-9,245.15,Yaw
C=CCCCC(C)(C)C=O,2,3.734186407719209,1538.288,205.19,68.77,242.88,C9H16O,"2,2-dimethyl-6-heptenal",---,245.15,Yaw
C=CCCC(C)C(C)C=O,2,3.734186407719209,1538.288,205.19,68.77,242.88,C9H16O,"2,3-dimethyl-6-heptenal",---,245.15,Yaw
C=CCC(C)CC(C)C=O,2,3.734186407719209,1538.288,205.19,68.77,242.88,C9H16O,"2,4-dimethyl-6-heptenal",---,245.15,Yaw
C=CC(C)CCC(C)C=O,2,3.734186407719209,1538.288,205.19,68.77,242.88,C9H16O,"2,5-dimethyl-6-heptenal",---,245.15,Yaw
C=C(C)CCCC(C)C=O,2,3.734186407719209,1538.288,205.19,68.77,242.88,C9H16O,"2,6-dimethyl-6-heptenal",---,245.15,Yaw
CCCCCC=CC(C)=O,2,3.537766407719209,1474.6938,205.087,67.07,250.52,C9H16O,trans-3-nonen-2-one,18402-83-0,242.66135993631016,ML
CCCCCCC=CC(=O)O,2,4.055176407719209,1866.6087,186.286,128.17,310.93,C9H16O2,2-nonenoic acid,3760-11-0,264.15,Yaw
CCCCCC=CCC(=O)O,2,4.055176407719209,1866.6087,186.286,128.17,310.93,C9H16O2,3-nonenoic acid,4124-88-3,268.75,Yaw
CCCCC=CCCC(=O)O,2,4.055176407719209,1866.6087,186.286,128.17,310.93,C9H16O2,4-nonenoic acid,---,269.52,Yaw
CCCC=CCCCC(=O)O,2,4.055176407719209,1866.6087,186.286,128.17,310.93,C9H16O2,5-nonenoic acid,---,269.52,Yaw
CCC=CCCCCC(=O)O,2,4.055176407719209,1866.6087,186.286,128.17,310.93,C9H16O2,6-nonenoic acid,---,269.52,Yaw
CC=CCCCCCC(=O)O,2,4.055176407719209,1866.6087,186.286,128.17,310.93,C9H16O2,7-nonenoic acid,---,269.52,Yaw
C=CCCCCCCC(=O)O,2,4.055176407719209,1866.6087,186.286,128.17,310.93,C9H16O2,8-nonenoic acid,31642-67-8,275.65,Yaw
CCCCCC=C(C)C(=O)O,2,3.833116407719209,1772.9202,188.51,121.77,313.44,C9H16O2,2-methyl-2-octenoic acid,---,269.52,Yaw
CCCCCC(C)=CC(=O)O,2,3.833116407719209,1772.9202,188.51,121.77,313.44,C9H16O2,3-methyl-2-octenoic acid,---,269.52,Yaw
CCCCC(C)C=CC(=O)O,2,3.833116407719209,1772.9202,188.51,121.77,313.44,C9H16O2,4-methyl-2-octenoic acid,---,269.52,Yaw
CCCC(C)CC=CC(=O)O,2,3.833116407719209,1772.9202,188.51,121.77,313.44,C9H16O2,5-methyl-2-octenoic acid,---,269.52,Yaw
CCC(C)CCC=CC(=O)O,2,3.833116407719209,1772.9202,188.51,121.77,313.44,C9H16O2,6-methyl-2-octenoic acid,---,269.52,Yaw
CC(C)CCCC=CC(=O)O,2,3.833116407719209,1772.9202,188.51,121.77,313.44,C9H16O2,7-methyl-2-octenoic acid,---,269.52,Yaw
CCCCC=CC(C)C(=O)O,2,3.833116407719209,1772.9202,188.51,121.77,313.44,C9H16O2,2-methyl-3-octenoic acid,---,269.52,Yaw
CCCCC=C(C)CC(=O)O,2,3.833116407719209,1772.9202,188.51,121.77,313.44,C9H16O2,3-methyl-3-octenoic acid,---,269.52,Yaw
CCCCC(C)=CCC(=O)O,2,3.833116407719209,1772.9202,188.51,121.77,313.44,C9H16O2,4-methyl-3-octenoic acid,---,269.52,Yaw
CCCC(C)C=CCC(=O)O,2,3.833116407719209,1772.9202,188.51,121.77,313.44,C9H16O2,5-methyl-3-octenoic acid,---,269.52,Yaw
CCC(C)CC=CCC(=O)O,2,3.833116407719209,1772.9202,188.51,121.77,313.44,C9H16O2,6-methyl-3-octenoic acid,---,269.52,Yaw
CC(C)CCC=CCC(=O)O,2,3.833116407719209,1772.9202,188.51,121.77,313.44,C9H16O2,7-methyl-3-octenoic acid,---,269.52,Yaw
CCCC=CCC(C)C(=O)O,2,3.833116407719209,1772.9202,188.51,121.77,313.44,C9H16O2,2-methyl-4-octenoic acid,---,269.52,Yaw
CCCC=CC(C)CC(=O)O,2,3.833116407719209,1772.9202,188.51,121.77,313.44,C9H16O2,3-methyl-4-octenoic acid,---,269.52,Yaw
CCCC=C(C)CCC(=O)O,2,3.833116407719209,1772.9202,188.51,121.77,313.44,C9H16O2,4-methyl-4-octenoic acid,---,269.52,Yaw
CCCC(C)=CCCC(=O)O,2,3.833116407719209,1772.9202,188.51,121.77,313.44,C9H16O2,5-methyl-4-octenoic acid,---,269.52,Yaw
CCC(C)C=CCCC(=O)O,2,3.833116407719209,1772.9202,188.51,121.77,313.44,C9H16O2,6-methyl-4-octenoic acid,---,269.52,Yaw
CC(C)CC=CCCC(=O)O,2,3.833116407719209,1772.9202,188.51,121.77,313.44,C9H16O2,7-methyl-4-octenoic acid,---,269.52,Yaw
CCCCC(C)=C(C)C(=O)O,2,3.628976407719208,1686.5705,190.734,115.37,316.06,C9H16O2,"2,3-dimethyl-2-heptenoic acid",---,269.52,Yaw
CCCC(C)C=C(C)C(=O)O,2,3.628976407719208,1686.5705,190.734,115.37,316.06,C9H16O2,"2,4-dimethyl-2-heptenoic acid",---,269.52,Yaw
CCC(C)CC=C(C)C(=O)O,2,3.628976407719208,1686.5705,190.734,115.37,316.06,C9H16O2,"2,5-dimethyl-2-heptenoic acid",---,269.52,Yaw
CC(=CCCC(C)C)C(=O)O,2,3.628976407719208,1686.5705,190.734,115.37,316.06,C9H16O2,"2,6-dimethyl-2-heptenoic acid",---,269.52,Yaw
CCCCC=C(CC)C(=O)O,2,3.728946407719208,1728.8846,189.622,118.57,314.73,C9H16O2,2-ethyl-2-heptenoic acid,---,269.52,Yaw
CCCCC(=CC(=O)O)CC,2,3.728946407719208,1728.8846,189.622,118.57,314.73,C9H16O2,3-ethyl-2-heptenoic acid,---,269.52,Yaw
CCCC(C=CC(=O)O)CC,2,3.728946407719208,1728.8846,189.622,118.57,314.73,C9H16O2,4-ethyl-2-heptenoic acid,---,269.52,Yaw
CCC(CC)CC=CC(=O)O,2,3.728946407719208,1728.8846,189.622,118.57,314.73,C9H16O2,5-ethyl-2-heptenoic acid,---,269.52,Yaw
C=CCOC(=O)CCCCC,2,4.542876407719208,1793.6627,204.356,74.87,218.49,C9H16O2,allyl hexanoate,123-68-2,215.7,Yaw
CCCC=C(C)C(=O)OCC,2,4.872506407719209,1911.9204,201.916,81.19,216.31,C9H16O2,ethyl 2-methyl-2-hexenoate,26311-33-1,215.7,Yaw
CCC=CC(C)C(=O)OCC,2,4.872506407719209,1911.9204,201.916,81.19,216.31,C9H16O2,ethyl 2-methyl-3-hexenoate,21994-78-5,215.7,Yaw
CCC=C(C)CC(=O)OCC,2,4.872506407719209,1911.9204,201.916,81.19,216.31,C9H16O2,ethyl 3-methyl-3-hexenoate,21994-77-4,215.7,Yaw
C=CC(=O)OCCCCCC,2,4.872506407719209,1911.9204,201.916,81.19,216.31,C9H16O2,hexyl acrylate,2499-95-8,228.15,Yaw
C=CC(=O)OCC(CC)CC,2,4.872506407719209,1911.9204,201.916,81.19,216.31,C9H16O2,2-ethylbutyl acrylate,3593-10-4,203.25,Yaw
CCC=CCCOC(=O)CC,2,5.286646407719209,2063.0781,199.769,88.07,214.04,C9H16O2,cis-3-hexenyl propionate,33467-74-2,215.7,Yaw
CCCC=CCOC(=O)CC,2,4.872506407719209,1911.9204,201.916,81.19,216.31,C9H16O2,trans-2-hexenyl propionate,53398-80-4,215.7,Yaw
CCCCCC(=O)CC(C)=O,3,3.982656407719209,1642.4072,201.916,78.19,244.19,C9H16O2,"2,4-nonanedione",6175-23-1,255.15,Yaw
CC(=O)CCCCCC(C)=O,3,3.982656407719209,1642.4072,201.916,78.19,244.19,C9H16O2,"2,8-nonanedione",30502-73-9,255.15,Yaw
O=C(O)CCCCCCCC(=O)O,"1,2",5.073006407719209,2667.0764,155.238,228.3,403.67,C9H16O4,azelaic acid,123-99-9,379.65,Yaw
CCOC(=O)CCCC(=O)OCC,3,5.645526407719208,2795.5328,261.951,109.48,261.12,C9H16O4,diethyl glutarate,818-38-2,249.05,Yaw
CC(CCC(=O)O)C(C)(C)C(=O)O,3,5.037566407719209,2616.4368,158.737,219.45,393.66,C9H16O4,trimethylhexanedioic acid,28472-18-6,365.7683331526025,ML
CCCCCCCC=CBr,2,5.367726407719209,2145.2861,195.071,100.89,228.34,C9H17Br,1-bromo-1-nonene,---,228.55312124710545,ML
CCCCCCC/C=C\Br,2,5.197096407719208,2077.0915,195.071,98.39,229.17,C9H17Br,cis-1-bromo-1-nonene,39924-58-8,222.3156774102828,ML
CCCCCCC/C=C/Br,2,5.197096407719208,2077.0915,195.071,98.39,229.17,C9H17Br,trans-1-bromo-1-nonene,53434-75-6,220.19745326056236,ML
C=C(Br)CCCCCCC,2,5.367726407719209,2145.2861,195.071,100.89,228.34,C9H17Br,2-bromo-1-nonene,---,217.81102862213615,ML
C=CC(Br)CCCCCC,2,5.367726407719209,2145.2861,195.071,100.89,228.34,C9H17Br,3-bromo-1-nonene,---,229.61111762958492,ML