smiles,code,A [log10(atm)],B [C],C [C],TMIN [C],TMAX [C],FORMULA,NAME,CAS No,mp [K],mp_type
CC(C)(C)CBr,"1,2",3.858196407719209,1107.6654,181.044,11.96,130.35,C5H11Br,"1-bromo-2,2-dimethylpropane",630-17-1,167.75,Yaw
CCCCCCl,"1,2",4.354046407719209,1500.3624,236.74,3.9,133.44,C5H11Cl,1-chloropentane,543-59-9,174.15,Yaw
CCCC(C)Cl,"1,2",4.1989564077192085,1352.3534,226.569,-4.13,120.37,C5H11Cl,2-chloropentane,625-29-6,136.15,Yaw
CCC(Cl)CC,"1,2",4.117716407719208,1309.3779,220.436,-2.15,122.63,C5H11Cl,3-chloropentane,616-20-6,168.15,Yaw
CCC(C)CCl,"1,2",4.745896407719209,1556.7216,228.114,6.8,122.11,C5H11Cl,1-chloro-2-methylbutane,616-13-7,176.6,Yaw
CC(C)CCCl,"1,2",4.695536407719208,1537.9229,228.679,5.18,121.29,C5H11Cl,1-chloro-3-methylbutane,107-84-6,168.76,Yaw
CCC(C)(C)Cl,"1,2",4.7049864077192085,1495.7857,232.265,-5.14,107.38,C5H11Cl,2-chloro-2-methylbutane,594-36-5,199.66,Yaw
CC(C)C(C)Cl,"1,2",4.700016407719208,1519.3551,230.266,0.61,115.12,C5H11Cl,2-chloro-3-methylbutane,631-65-2,176.6,Yaw
CC(C)(C)CCl,"1,2",4.703876407719209,1491.0309,232.629,-20.0,106.02,C5H11Cl,"1-chloro-2,2-dimethylpropane",753-89-9,253.15,Yaw
CCCCCS(=O)(=O)Cl,3,4.745136407719208,2010.719,207.046,96.42,245.4,C5H11ClO2S,1-pentanesulfonyl chloride,6303-18-0,250.633052834862,ML
CN(CCCl)CCCl,3,3.863786407719209,2047.5743,273.15,83.28,301.57,C5H11Cl2N,2-chloro-N-(2-chloroethyl)-N-methylethanamine,51-75-2,213.15,Yaw
CCCCCF,"1,2",4.233346407719209,1249.1209,232.217,-27.92,85.44,C5H11F,1-fluoropentane,592-50-7,153.15,Yaw
CCCC(C)F,2,4.117706407719209,1125.4838,219.675,-32.05,75.21,C5H11F,2-fluoropentane,590-87-4,152.65,Yaw
CCC(F)CC,2,4.027906407719208,1110.3041,222.0,-34.09,75.92,C5H11F,3-fluoropentane,41909-29-9,152.65,Yaw
CCC(C)CF,2,4.230476407719209,1194.5734,228.72,-33.25,75.29,C5H11F,1-fluoro-2-methylbutane,10086-64-3,152.65,Yaw
CC(C)CCF,2,4.3655064077192085,1351.7931,256.0,-39.59,76.59,C5H11F,1-fluoro-3-methylbutane,407-06-7,152.65,Yaw
CCC(C)(C)F,2,3.7603964077192087,1117.7934,243.601,-45.45,79.52,C5H11F,2-fluoro-2-methylbutane,661-53-0,152.15,Yaw
CC(C)C(C)F,2,4.060586407719208,1257.3733,256.0,-44.37,78.45,C5H11F,2-fluoro-3-methylbutane,62108-95-6,152.65,Yaw
CC(C)(C)CF,2,3.6858364077192087,1141.3304,256.0,-50.97,81.19,C5H11F,"1-fluoro-2,2-dimethylpropane",59006-05-2,152.65,Yaw
CCCCCI,"1,2",4.475776407719208,1642.4695,212.418,45.97,181.01,C5H11I,1-iodopentane,628-17-1,187.55,Yaw
CCCC(C)I,2,3.9533164077192087,1464.8343,216.31,34.77,184.76,C5H11I,2-iodopentane,637-97-8,187.55,Yaw
CCC(I)CC,2,4.023646407719209,1488.6576,215.754,36.37,184.14,C5H11I,3-iodopentane,1809-05-8,187.55,Yaw
CCC(C)CI,2,4.059536407719208,1500.8065,215.476,37.17,183.83,C5H11I,1-iodo-2-methylbutane,29394-58-9,187.55,Yaw
CC(C)CCI,"1,2",4.464466407719208,1610.3979,214.865,38.93,171.93,C5H11I,1-iodo-3-methylbutane,541-28-6,187.55,Yaw
CCC(C)(C)I,2,3.509216407719209,1313.9409,220.202,23.57,189.36,C5H11I,2-iodo-2-methylbutane,594-38-7,187.55,Yaw
CC(C)C(C)I,2,3.851276407719209,1430.2388,217.144,32.37,185.71,C5H11I,2-iodo-3-methylbutane,18295-27-7,187.55,Yaw
CC(C)(C)CI,2,3.658806407719209,1364.8648,218.812,27.57,187.67,C5H11I,"1-iodo-2,2-dimethylpropane",15501-33-4,187.55,Yaw
CN1CCCC1,"1,2",4.157316407719208,1326.5183,238.53,-18.84,105.46,C5H11N,N-methylpyrrolidine,120-94-5,179.15,Yaw
C1CCNCC1,"1,2",4.272996407719209,1430.6238,228.756,-10.5,131.42,C5H11N,piperidine,110-89-4,262.65,Yaw
NC1CCCC1,"1,2",4.349876407719209,1413.7695,216.964,9.94,132.21,C5H11N,cyclopentylamine,1003-03-8,190.45,Yaw
C=CCN(C)C,"1,2",4.589476407719209,1386.5447,238.564,-24.27,84.76,C5H11N,"N,N-dimethylallylamine",2155-94-4,185.8984788357576,ML
CC1CCCN1,3,3.7492764077192087,1295.4288,228.82,1.27,146.86,C5H11N,2-methylpyrrolidine,765-38-8,176.78,Yaw
CC1CCNC1,3,3.4936764077192084,1214.0124,230.794,-4.91,149.46,C5H11N,3-methylpyrrolidine,34375-89-8,170.4,Yaw
CC(C)(C)NC=O,"1,2",4.578336407719209,1840.0723,199.908,84.97,230.29,C5H11NO,tert-butylformamide,2425-74-3,289.15,Yaw
CCN(C=O)CC,"1,2",4.563896407719208,1753.5355,206.719,65.37,204.63,C5H11NO,"N,N-diethylformamide",617-84-5,289.15,Yaw
CCCCC[N+](=O)[O-],"1,2",4.505416407719209,1714.9052,208.082,60.45,199.8,C5H11NO2,1-nitropentane,628-05-7,297.48,Yaw
CCCC(C)[N+](=O)[O-],2,3.879246407719209,1484.8194,213.808,24.33,201.15,C5H11NO2,2-nitropentane,4609-89-6,297.48,Yaw
CCC(CC)[N+](=O)[O-],2,3.879246407719209,1484.8194,213.808,24.33,201.15,C5H11NO2,3-nitropentane,551-88-2,297.48,Yaw
CCC(C)C[N+](=O)[O-],2,4.228466407719209,1606.7305,211.028,24.33,198.08,C5H11NO2,1-nitro-2-methylbutane,3457-57-6,297.48,Yaw
CCC(C)(C)[N+](=O)[O-],2,3.808336407719208,1460.0065,214.42,42.21,201.86,C5H11NO2,2-nitro-2-methylbutane,595-42-6,235.15,Yaw
CC(C)C(C)[N+](=O)[O-],2,3.846776407719209,1473.4573,214.086,24.33,201.47,C5H11NO2,2-nitro-3-methylbutane,2625-35-6,297.48,Yaw
CC(C)(C)C[N+](=O)[O-],2,3.8306864077192087,1467.8287,214.225,14.0,201.63,C5H11NO2,"1-nitro-2,2-dimethylpropane",34715-98-5,287.15,Yaw
CSCCC(N)C(=O)O,3,9.789286407719208,6530.0,273.15,286.4,415.07,C5H11NO2S,L-methionine,63-68-3,555.15,Yaw
CCCCCO[N+](=O)[O-],2,4.3013864077192085,1590.4112,214.086,43.17,183.48,C5H11NO3,amyl nitrate,1002-16-0,149.95,Yaw
CC(C)CCO[N+](=O)[O-],"1,2",4.4827164077192085,1627.0928,214.92,40.77,174.18,C5H11NO3,3-methylbutyl nitrate,543-87-3,211.55,Yaw
CCCCC,"1,2",4.128106407719208,1134.1488,238.678,-49.93,57.67,C5H12,pentane,109-66-0,143.47,Yaw
CCC(C)C,"1,2",4.149486407719209,1140.4542,247.012,-57.89,49.33,C5H12,isopentane,78-78-4,112.65,Yaw
CN1CCNCC1,"1,2",4.744626407719209,1687.4286,217.7,36.99,162.04,C5H12N2,1-methylpiperazine,109-01-3,267.82,Yaw
CC1CNCCN1,"1,2",4.641326407719209,1710.7009,213.53,48.76,180.61,C5H12N2,2-methylpiperazine,109-07-9,335.15,Yaw
C1CNCCNC1,"1,2",4.752996407719209,1797.1281,209.055,41.5,194.62,C5H12N2,homopiperazine,505-66-8,314.65,Yaw
CN(C)C(=O)N(C)C,3,3.2286764077192087,1374.3418,208.441,20.7,260.99,C5H12N2O,tetramethylurea,632-22-4,272.55,Yaw
CCCCCO,"1,2",4.334606407719209,1333.4601,169.781,44.76,160.81,C5H12O,1-pentanol,71-41-0,195.56,Yaw
CCCC(C)O,"1,2",4.187776407719209,1182.9001,163.615,31.31,140.73,C5H12O,2-pentanol,6032-29-7,200.0,Yaw
CCC[C@@H](C)O,"1,2",5.409016407719209,1845.321,221.606,31.53,139.66,C5H12O,(R)-(-)-2-pentanol,31087-44-2,221.71,Yaw
CCC(O)CC,"1,2",4.280526407719209,1236.3316,173.977,26.68,136.7,C5H12O,3-pentanol,584-02-1,204.15,Yaw
CCC(C)CO,"1,2",4.210536407719209,1208.5824,158.188,40.22,150.95,C5H12O,2-methyl-1-butanol,137-32-6,221.71,Yaw
CC(C)C(C)O,2,6.601466407719208,2098.2465,224.678,22.69,108.35,C5H12O,"3-methyl-2-butanol, ()",70116-68-6,221.71,Yaw
CC(C)CCO,"1,2",4.186276407719209,1174.0688,149.606,43.91,152.58,C5H12O,3-methyl-1-butanol,123-51-3,155.95,Yaw
CCC(C)(C)O,"1,2",3.840076407719208,935.3111,141.615,21.87,122.67,C5H12O,tert-pentyl-alcohol,75-85-4,264.35,Yaw
CCCCOC,"1,2",4.178226407719209,1250.5902,228.261,-21.86,94.29,C5H12O,methyl butyl ether,628-28-4,157.48,Yaw
CCC(C)OC,"1,2",4.645926407719209,1387.7967,239.662,-27.03,79.75,C5H12O,methyl sec-butyl ether,6795-87-5,155.89,Yaw
COCC(C)C,"1,2",4.648356407719208,1386.7791,239.787,-27.39,79.21,C5H12O,methyl isobutyl ether,625-44-5,155.89,Yaw
COC(C)(C)C,"1,2",4.654496407719209,1376.6551,240.719,-30.07,75.5,C5H12O,methyl tert-butyl ether,1634-04-4,164.55,Yaw
CCCOCC,"1,2",4.662796407719209,1407.9829,238.311,-23.14,84.49,C5H12O,ethyl propyl ether,628-32-0,145.65,Yaw
CCOC(C)C,"1,2",4.625866407719209,1363.1507,241.33,-31.83,73.86,C5H12O,ethyl isopropyl ether,625-54-7,155.89,Yaw
CCCOCCO,"1,2",5.157516407719209,1875.9883,213.989,52.55,172.3,C5H12O2,ethylene glycol monopropyl ether,2807-30-9,183.15,Yaw
CCOCC(C)O,3,5.118746407719208,1791.3013,219.646,36.27,152.17,C5H12O2,1-ethoxy-2-propanol,1569-02-4,183.15,Yaw
CCOC(C)CO,3,5.676746407719209,1971.58,217.005,43.87,149.75,C5H12O2,2-ethoxy-1-propanol,19089-47-5,183.15,Yaw
CC(C)OCCO,"1,2",5.262286407719209,1880.2373,215.754,47.47,163.23,C5H12O2,2-isopropoxyethanol,109-59-1,183.15,Yaw
COC(C)CCO,"1,2",4.931476407719209,1835.8327,212.418,57.07,184.05,C5H12O2,3-methoxy-1-butanol,2517-43-3,183.15,Yaw
CCOCCCO,"1,2",5.0709764077192085,1886.3072,211.431,59.91,184.03,C5H12O2,3-ethoxy-1-propanol,111-35-3,183.15,Yaw
CCC(O)COC,3,5.284956407719209,1845.0588,218.812,38.67,151.39,C5H12O2,1-methoxy-2-butanol,53778-73-7,183.15,Yaw
CCOC(O)CC,3,8.359086407719209,2832.6194,208.564,68.06,142.96,C5H12O2,ethyl ether of propylene glycol,52125-53-8,183.15,Yaw
CCCC(O)CO,"1,2",5.216286407719208,2111.6153,197.962,99.57,231.64,C5H12O2,"1,2-pentanediol",5343-92-0,324.01,Yaw
CCC(O)CCO,3,5.709626407719208,2305.949,194.626,109.17,231.72,C5H12O2,"1,3-pentanediol",3174-67-2,324.01,Yaw
CC(O)CCCO,3,4.7949364077192085,1961.858,199.908,93.97,236.65,C5H12O2,"1,4-pentanediol",626-95-9,324.01,Yaw
OCCCCCO,"1,2",5.109786407719208,2189.4025,189.622,123.57,265.67,C5H12O2,"1,5-pentanediol",111-29-5,257.15,Yaw
CCC(O)C(C)O,3,4.244336407719208,1753.6864,203.939,50.86,240.79,C5H12O2,"2,3-pentanediol",42027-23-6,324.01,Yaw
CC(O)CC(C)O,"1,2",5.118056407719209,2041.655,201.062,90.65,222.78,C5H12O2,"2,4-pentanediol",625-69-4,325.65,Yaw
C[C@@H](O)C[C@@H](C)O,3,3.724886407719208,1556.2845,208.564,69.06,245.98,C5H12O2,"(R,R)-(-)-2,4-pentanediol",42075-32-1,323.15,Yaw
CCC(C)(O)CO,3,4.296576407719209,1773.4816,203.522,50.86,240.34,C5H12O2,"2-methyl-1,2-butanediol",41051-72-3,324.01,Yaw
CC(O)C(C)CO,3,4.712496407719208,1930.7463,200.464,92.37,237.2,C5H12O2,"2-methyl-1,3-butanediol",684-84-4,324.01,Yaw
CC(CO)CCO,3,4.331966407719209,1786.8843,203.244,50.86,240.05,C5H12O2,"2-methyl-1,4-butanediol",2938-98-9,324.01,Yaw
CC(O)C(C)(C)O,3,3.8151064077192087,1590.6564,207.692,50.86,244.96,C5H12O2,"2-methyl-2,3-butanediol",5396-58-7,324.01,Yaw
CC(C)C(O)CO,3,4.712496407719208,1930.7463,200.464,92.37,237.2,C5H12O2,"3-methyl-1,2-butanediol",50468-22-9,324.01,Yaw
CC(C)(O)CCO,3,4.6721164077192086,1915.5007,200.742,91.57,237.48,C5H12O2,"3-methyl-1,3-butanediol",2568-33-4,324.01,Yaw
CCC(CO)CO,3,4.797026407719208,1962.6466,199.894,94.01,236.64,C5H12O2,"2-ethyl-1,3-propanediol",2612-29-5,324.01,Yaw
CCOCOCC,3,3.018576407719209,1125.4662,237.544,-7.83,176.6,C5H12O2,diethoxymethane,462-95-3,206.65,Yaw
COCCOCCO,"1,2",5.742186407719208,2537.5904,248.321,84.57,218.05,C5H12O3,2-(2-methoxyethoxy)ethanol,111-77-3,223.3915936278213,ML
CCCCOS(=O)OC,3,3.2973564077192083,1295.6729,208.248,41.97,224.17,C5H12O3S,butyl methyl sulfite,33653-28-0,230.54487105097166,ML
CCCCOS(=O)(=O)OC,3,3.465576407719209,1530.2384,194.401,91.82,289.16,C5H12O4S,butyl methyl sulfate,3518-51-2,242.0411135331993,ML
CCCOS(=O)(=O)OCC,3,3.465576407719209,1530.2384,194.401,91.82,289.16,C5H12O4S,ethyl propyl sulfate,5867-94-7,247.485428644672,ML
CCCCCS,"1,2",4.711926407719209,1634.6057,220.858,27.08,149.73,C5H12S,1-pentanethiol,110-66-7,197.45,Yaw
CCCC(C)S,2,4.121996407719209,1443.7173,224.817,15.69,153.02,C5H12S,2-pentanethiol,2084-19-7,104.2,Yaw
CCC(S)CC,"1,2",4.678096407719209,1582.599,224.4,16.89,137.17,C5H12S,3-pentanethiol,616-31-9,162.35,Yaw
CCC(C)CS,"1,2",4.800366407719209,1629.8826,222.983,20.97,139.27,C5H12S,2-methyl-1-butanethiol,1878-18-8,163.2,Yaw
CC(C)CCS,"1,2",4.6943364077192085,1601.7742,223.164,20.45,141.43,C5H12S,3-methyl-1-butanethiol,541-31-1,139.64,Yaw
CCC(C)(C)S,"1,2",4.530196407719209,1497.4857,228.506,5.07,125.58,C5H12S,2-methyl-2-butanethiol,1679-09-0,169.38,Yaw
CC(C)C(C)S,"1,2",4.6742064077192085,1567.4998,225.551,13.58,132.88,C5H12S,3-methyl-2-butanethiol,2084-18-6,163.2,Yaw
CC(C)(C)CS,"1,2",4.672186407719209,1546.2189,227.241,8.71,126.49,C5H12S,"2,2-dimethyl-1-propanethiol",1679-08-9,206.15,Yaw
CCCCSC,"1,2",4.206086407719209,1436.4114,218.358,17.63,149.48,C5H12S,2-thiahexane,628-29-5,175.3,Yaw
CCCSCC,"1,2",4.171106407719209,1396.0413,216.143,14.53,144.58,C5H12S,3-thiahexane,4110-50-3,156.15,Yaw
CCC(C)SC,2,4.225476407719209,1316.6146,206.159,9.46,129.33,C5H12S,3-methyl-2-thiapentane,10359-64-5,167.46,Yaw
CSCC(C)C,"1,2",3.9574464077192086,1271.6441,208.229,9.58,139.55,C5H12S,4-methyl-2-thiapentane,5008-69-5,164.05,Yaw
CCSC(C)C,"1,2",3.910786407719209,1249.3059,212.102,3.61,133.99,C5H12S,2-methyl-3-thiapentane,5145-99-3,150.96,Yaw
CSC(C)(C)C,"1,2",4.020556407719209,1300.733,223.671,-3.26,126.03,C5H12S,"3,3-dimethyl-2-thiabutane",6163-64-0,190.84,Yaw
SCCCCCS,2,4.6180864077192085,2094.1597,232.846,89.39,252.24,C5H12S2,"1,5-pentanedithiol",928-98-3,201.25,Yaw
CC(S)CCCS,2,4.010666407719208,1676.5769,197.406,87.17,254.54,C5H12S2,"1,4-pentanedithiol",---,201.25,Yaw
CCC(S)CCS,2,3.858246407719209,1618.2206,198.796,83.17,256.12,C5H12S2,"1,3-pentanedithiol",---,201.25,Yaw
CCCC(S)CS,2,3.7144364077192087,1563.0683,200.186,79.17,257.73,C5H12S2,"1,2-pentanedithiol",---,201.25,Yaw
CCSCSCC,2,4.618426407719209,1742.6298,206.699,61.43,196.93,C5H12S2,"2,3-dithiaheptane",4396-19-4,179.65,Yaw
CCCSSCC,"1,2",4.125216407719209,1552.0517,203.385,55.03,202.47,C5H12S2,"3,4-dithiaheptane",30453-31-7,179.65,Yaw
CCCSCSC,2,5.080566407719209,1902.8808,203.919,69.43,194.21,C5H12S2,"2,4-dithiaheptane",---,179.65,Yaw
CCSSC(C)C,2,4.300726407719209,1637.1982,210.057,54.8,199.27,C5H12S2,"2-methyl-3,4-dithiahexane",53966-36-2,179.65,Yaw
CSCCCSC,2,4.383116407719209,1660.818,208.29,56.85,198.57,C5H12S2,"1,3-bis(methylsulfanyl)propane",24949-35-7,179.65,Yaw
CCCCCN,"1,2",4.583386407719209,1517.0473,229.138,5.55,125.12,C5H13N,pentylamine,110-58-7,218.15,Yaw
CCCC(C)N,"1,2",4.106916407719209,1151.2405,189.268,3.0,113.22,C5H13N,1-methylbutylamine,625-30-9,203.15,Yaw
CCC(C)CN,"1,2",4.079996407719209,1156.0861,187.805,6.14,118.12,C5H13N,2-methylbutylamine,96-15-1,203.15,Yaw
CC(C)CCN,"1,2",4.278016407719209,1198.7762,187.368,7.28,114.06,C5H13N,3-methylbutylamine,107-85-7,203.15,Yaw
CCC(C)(C)N,"1,2",4.016276407719209,1081.5084,192.232,-8.83,98.87,C5H13N,"1,1-dimethylpropylamine",594-39-8,168.15,Yaw
CC(C)C(C)N,"1,2",3.9630064077192086,1094.7525,190.693,-3.36,108.26,C5H13N,"1,2-dimethylpropylamine",598-74-3,223.15,Yaw
CC(C)(C)CN,"1,2",3.769176407719209,1037.088,192.65,-9.09,106.38,C5H13N,"2,2-dimethylpropylamine",5813-64-9,203.15,Yaw
CCC(N)CC,"1,2",4.736906407719209,1521.3622,231.322,-1.43,111.65,C5H13N,3-pentanamine,616-24-0,203.15,Yaw
CCCCNC,"1,2",4.126906407719209,1159.2759,189.857,3.11,113.15,C5H13N,methyl-butylamine,110-68-9,198.15,Yaw
CNC(C)(C)C,"1,2",4.2244364077192085,1125.8574,193.011,-8.6,93.95,C5H13N,methylisobutylamine,14610-37-8,198.15,Yaw
CCC(C)NC,"1,2",4.050866407719209,1096.235,192.118,-7.31,100.22,C5H13N,methyl-sec-butylamine,7713-69-1,198.15,Yaw
CNCC(C)C,2,3.663446407719209,1005.4377,193.391,-12.04,105.63,C5H13N,methyl-tert-butylamine,625-43-4,198.15,Yaw
CCCNCC,"1,2",4.547716407719209,1193.0867,192.099,-6.51,88.85,C5H13N,ethylpropylamine,20193-20-8,198.15,Yaw
CCNC(C)C,"1,2",4.376456407719209,1150.688,193.277,-9.38,89.07,C5H13N,ethylisopropylamine,19961-27-4,198.15,Yaw
CCN(C)CC,"1,2",4.012566407719208,1040.5066,194.462,-17.91,85.88,C5H13N,methyldiethylamine,616-39-7,157.27,Yaw
CCCN(C)C,"1,2",3.589636407719208,920.4864,190.579,-22.31,89.32,C5H13N,dimethyl-propylamine,926-63-6,157.27,Yaw
CC(C)N(C)C,2,4.142296407719209,1055.0243,193.635,-18.47,81.02,C5H13N,dimethylisopropylamine,996-35-6,157.27,Yaw
CC(C)C(N)CO,3,3.823656407719208,1546.348,210.987,60.09,227.99,C5H13NO,"2-amino-3-methyl-1-butanol, ()",16369-05-4,302.99,Yaw
CCC(O)C(C)N,3,4.106886407719209,1650.7859,208.526,29.84,225.22,C5H13NO,2-amino-3-pentanol,116836-16-9,302.99,Yaw
NCCCCCO,"1,2",4.984326407719209,2073.6655,194.487,107.57,248.29,C5H13NO,5-amino-1-pentanol,2508-29-4,311.65,Yaw
CC(O)CN(C)C,"1,2",5.026366407719209,1736.6255,221.453,29.84,146.06,C5H13NO,1-(dimethylamino)-2-propanol,108-16-7,302.99,Yaw
CC(CO)N(C)C,3,3.488386407719209,1422.2533,214.281,29.84,231.94,C5H13NO,2-(dimethylamino)-1-propanol,15521-18-3,302.99,Yaw
CN(C)CCCO,3,3.864896407719209,1561.5774,210.611,29.84,227.56,C5H13NO,3-(dimethylamino)-1-propanol,3179-63-3,302.99,Yaw
CC(C)NCCO,3,4.175346407719209,1675.9836,207.97,68.77,224.62,C5H13NO,2-(isopropylamino)ethanol,109-56-8,289.0,Yaw
CCCNCCO,3,4.506516407719209,1797.6381,205.468,75.97,221.98,C5H13NO,2-(propylamino)ethanol,16369-21-4,302.99,Yaw
CC(C)[C@@H](N)CO,3,4.815166407719208,1910.72,203.383,81.97,219.89,C5H13NO,(R)-(-)-2-amino-3-methyl-1-butanol,4276-09-9,296.4716580691492,ML
CCCC(N)CO,3,5.040086407719208,1992.9646,201.993,85.97,218.55,C5H13NO,DL-2-amino-1-pentanol,4146-04-7,302.99,Yaw
C[C@H](O)CN(C)C,3,2.879426407719208,1195.0248,221.592,29.45,241.88,C5H13NO,(S)-(+)-1-dimethylamino-2-propanol,53636-17-2,302.99,Yaw
CN(CCO)CCO,"1,2",5.972806407719208,2594.7905,187.384,143.01,270.11,C5H13NO2,methyl diethanolamine,105-59-9,252.15,Yaw
CCC(N)(CO)CO,3,4.395166407719208,1843.2422,206.928,86.77,243.29,C5H13NO2,"2-amino-2-ethyl-1,3-propanediol",115-70-8,310.65,Yaw
CNSC(C)(C)C,3,5.503516407719209,2187.3,273.15,23.06,147.28,C5H13NS,N-methyl-tert-butylsulfenamide,900000-18-2,255.4020046500051,ML
NCCCCCN,"1,2",4.800376407719209,1849.8373,206.302,70.57,204.83,C5H14N2,"1,5-pentanediamine",462-94-2,282.15,Yaw
CN(C)CN(C)C,"1,2",4.672366407719209,1486.0017,232.99,-30.89,106.95,C5H14N2,"N,N,N',N'-tetramethylmethanediamine",51-80-9,242.26,Yaw
CCC(N)CCN,3,6.098546407719208,2146.7853,210.472,58.57,159.82,C5H14N2,"1,3-diaminopentane",589-37-7,152.25,Yaw
CN(C)CCCN,"1,2",4.8244264077192085,1697.238,218.951,34.17,156.26,C5H14N2,3-dimethylamino-1-propylamine,109-55-7,213.25,Yaw
CNCCCNC,3,4.964316407719209,1773.7385,215.754,43.37,164.61,C5H14N2,"N,N'-dimethyl-1,3-propanediamine",111-33-1,194.43,Yaw
CC(C)(CN)CN,"1,2",4.794916407719208,1757.7212,213.53,30.0,177.61,C5H14N2,"2,2-dimethyl-1,3-propanediamine",7328-91-8,303.15,Yaw
CC(C)NCCN,3,4.541256407719208,1633.9431,218.256,36.17,167.09,C5H14N2,N-isopropylethylenediamine,19522-67-9,242.26,Yaw
CCCNCCN,"1,2",4.793916407719209,1741.7784,214.781,46.17,172.89,C5H14N2,N-propylethylenediamine,111-39-7,242.26,Yaw
CNCCN(C)C,"1,2",4.786366407719209,1630.182,223.538,20.97,139.91,C5H14N2,"N,N,N'-trimethylethylenediamine",142-25-6,242.26,Yaw
CCCCN(C)N,2,7.010336407719208,2326.1904,214.42,47.21,132.29,C5H14N2,methylbutyl hydrazine,20240-62-4,249.68726265441705,ML
Fc1c(F)c(F)c(Br)c(F)c1F,3,4.022736407719209,1381.1843,206.345,27.61,164.77,C6BrF5,bromopentafluorobenzene,344-04-7,242.15,Yaw
Fc1c(F)c(F)c(Cl)c(F)c1F,3,4.258976407719208,1423.3832,216.248,15.58,143.38,C6ClF5,chloropentafluorobenzene,344-07-0,257.49,Yaw
Fc1c(Cl)c(F)c(Cl)c(F)c1Cl,3,4.323356407719209,1751.6679,206.764,75.57,228.72,C6Cl3F3,"1,3,5-trichloro-2,4,6-trifluorobenzene",319-88-0,334.16,Yaw
O=[N+]([O-])c1c(Cl)c([N+](=O)[O-])c(Cl)c([N+](=O)[O-])c1Cl,3,6.0778264077192095,3601.7,273.15,179.4,350.33,C6Cl3N3O6,"1,3,5-trichloro-2,4,6-trinitrobenzene",2631-68-7,422.72018200375504,ML
Fc1c(F)c(F)c(F)c(F)c1F,"1,2",4.011416407719208,1117.5985,196.754,-7.08,104.45,C6F6,hexafluorobenzene,392-56-3,278.25,Yaw
FC(F)=C(F)C(F)(F)C(F)(F)C(F)(F)C(F)(F)F,2,4.323566407719208,1299.7446,240.218,-30.73,82.9,C6F12,perfluoro-1-hexene,755-25-9,168.60000182844792,ML
FC(F)(F)C(F)(C(F)(F)F)C(F)(C(F)(F)F)C(F)(F)F,2,4.896506407719208,1444.4699,239.44,-26.31,74.88,C6F14,"perfluoro-2,3-dimethylbutane",354-96-1,258.15,Yaw
FC(F)(F)C(F)(F)C(F)(F)C(F)(F)C(F)(F)C(F)(F)F,"1,2",4.491376407719208,1344.4015,240.33,-29.35,80.5,C6F14,perfluorohexane,355-42-0,184.95,Yaw
FC(F)(F)C(F)(F)C(F)(F)C(F)(C(F)(F)F)C(F)(F)F,"1,2",4.625826407719209,1376.164,240.052,-28.55,78.15,C6F14,perfluoro-2-methylpentane,355-04-4,102.45,Yaw
FC(F)(F)C(F)(F)C(F)(C(F)(F)F)C(F)(F)C(F)(F)F,2,4.775136407719208,1410.5232,239.829,-27.91,75.43,C6F14,perfluoro-3-methylpentane,865-71-4,157.75,Yaw
FC(F)(F)C(F)(F)C(F)(F)[Se]C(F)(F)C(F)(F)C(F)(F)F,3,4.829286407719208,1803.0,273.15,-4.45,125.02,C6F14Se,bis(heptafluoro-propyl) selenide,755-81-7,237.91649151030367,ML
FC(F)(F)C(F)(F)C(F)(F)[SeH-](=[Se])C(F)(F)C(F)(F)C(F)(F)F,3,4.655186407719208,1967.0,273.15,27.8,178.6,C6F14Se2,bis(heptafluoro-propyl)diselenide,755-51-1,307.46551442939676,ML
FC(F)(F)C(F)(F)N(C(F)(F)C(F)(F)F)C(F)(F)C(F)(F)F,3,3.648366407719209,937.41,186.64,-17.1,93.41,C6F15N,perfluorotriethylamine,359-70-6,156.2,Yaw