smiles,code,A [log10(atm)],B [C],C [C],TMIN [C],TMAX [C],FORMULA,NAME,CAS No,mp [K],mp_type
CC(C)(C)C#N,"1,2",4.805466407719209,1604.2275,236.984,2.94,119.16,C5H9N,"2,2-dimethylpropanenitrile",630-18-2,289.15,Yaw
[C-]#[N+]CCCC,2,5.022236407719209,1701.0728,221.453,24.97,138.85,C5H9N,butyl isocyanide,2769-64-4,216.32287026175166,ML
[C-]#[N+]CC(C)C,2,4.324406407719208,1482.1441,225.484,13.37,142.9,C5H9N,isobutyl isocyanide,590-94-3,218.0353509477455,ML
[C-]#[N+]C(C)CC,2,4.404646407719208,1507.3784,224.97,14.85,142.36,C5H9N,sec-butyl isocyanide,14069-89-7,212.61421815463777,ML
[C-]#[N+]C(C)(C)C,"1,2",4.621326407719208,1490.2731,230.627,-1.43,114.32,C5H9N,tert-butyl isocyanide,7188-38-7,284.18072756812006,ML
CC(C)(C)N=C=O,2,10.404226407719207,3475.6394,208.436,74.48,135.58,C5H9NO,2-isocyanato-2-methylpropane,1609-86-5,358.65,Yaw
NC(CCC(=O)O)C(=O)O,3,14.073056407719209,5512.4409,124.488,221.04,275.78,C5H9NO4,L-glutamic acid,56-86-0,497.15,Yaw
CC1(C)CC1,"1,2",4.163826407719209,1070.2301,235.18,-58.13,41.88,C5H10,"1,1-dimethylcyclopropane",1630-94-0,164.25,Yaw
C[C@H]1C[C@H]1C,"1,2",4.670026407719209,1315.1724,245.77,-45.01,55.25,C5H10,"1,cis-2-dimethylcyclopropane",930-18-7,132.28,Yaw
CCC1CC1,"1,2",4.600906407719209,1297.5736,246.076,-45.89,55.69,C5H10,ethylcyclopropane,1191-96-4,123.93,Yaw
CC1CCC1,"1,2",3.960856407719208,1134.7504,247.641,-53.39,62.41,C5H10,methylcyclobutane,598-61-8,138.6,Yaw
C1CCCC1,"1,2",4.161856407719209,1202.5299,239.69,-40.68,71.78,C5H10,cyclopentane,287-92-3,179.72,Yaw
C=CCCC,"1,2",4.103736407719208,1124.367,243.136,-55.26,52.54,C5H10,1-pentene,109-67-1,108.02,Yaw
CC=CCC,"1,2",4.254736407719209,1205.312,246.737,-50.29,58.12,C5H10,2-pentene,109-68-2,130.55,Yaw
C=C(C)CC,"1,2",4.109416407719209,1118.3135,240.98,-54.29,52.67,C5H10,2-methyl-1-butene,563-46-2,135.58,Yaw
C=CC(C)C,"1,2",4.1683864077192085,1117.7125,248.08,-63.31,40.93,C5H10,3-methyl-1-butene,563-45-1,104.66,Yaw
CC=C(C)C,"1,2",4.2171864077192085,1184.9676,242.425,-48.1,60.16,C5H10,2-methyl-2-butene,513-35-9,139.39,Yaw
CCCCC(Br)Br,2,4.329636407719208,1710.3224,206.024,69.37,218.52,C5H10Br2,"1,1-dibromopentane",13320-56-4,244.52,Yaw
CCCC(Br)CBr,"1,2",5.0971364077192085,1936.2569,204.912,72.57,198.8,C5H10Br2,"1,2-dibromopentane",3234-49-9,244.52,Yaw
CCC(Br)CCBr,2,4.727856407719209,1854.4887,203.244,77.37,215.68,C5H10Br2,"1,3-dibromopentane",42474-20-4,244.52,Yaw
CC(Br)CCCBr,2,5.187566407719208,2020.3864,200.464,85.37,213.0,C5H10Br2,"1,4-dibromopentane",626-87-9,238.73,Yaw
BrCCCCCBr,"1,2",4.696116407719209,1956.4704,194.265,103.21,250.88,C5H10Br2,"1,5-dibromopentane",111-24-0,233.15,Yaw
CCCC(C)(Br)Br,2,3.981336407719208,1583.801,208.804,61.37,221.54,C5H10Br2,"2,2-dibromopentane",54653-26-8,244.52,Yaw
CCC(Br)C(C)Br,2,4.274446407719209,1690.3049,206.441,68.17,218.96,C5H10Br2,"2,3-dibromopentane",5398-25-4,217.15,Yaw
CC(Br)CC(C)Br,2,4.4049664077192086,1737.6292,205.468,70.97,217.94,C5H10Br2,"2,4-dibromopentane",19398-53-9,244.52,Yaw
CCC(Br)(Br)CC,2,3.885196407719208,1548.7985,209.638,58.97,222.48,C5H10Br2,"3,3-dibromopentane",54653-27-9,244.52,Yaw
CCC(C)C(Br)Br,2,4.081146407719209,1620.1059,207.97,63.77,220.62,C5H10Br2,"1,1-dibromo-2-methylbutane",62127-58-6,244.52,Yaw
CCC(C)(Br)CBr,2,4.081146407719209,1620.1059,207.97,63.77,220.62,C5H10Br2,"1,2-dibromo-2-methylbutane",10428-64-5,202.95,Yaw
CC(Br)C(C)CBr,2,4.081146407719209,1620.1059,207.97,63.77,220.62,C5H10Br2,"1,3-dibromo-2-methylbutane",49623-50-9,244.52,Yaw
CC(CBr)CCBr,2,4.081146407719209,1620.1059,207.97,63.77,220.62,C5H10Br2,"1,4-dibromo-2-methylbutane",69498-28-8,244.52,Yaw
CC(C)CC(Br)Br,2,4.081146407719209,1620.1059,207.97,63.77,220.62,C5H10Br2,"1,1-dibromo-3-methylbutane",62127-59-7,244.52,Yaw
CC(C)C(Br)CBr,2,4.081146407719209,1620.1059,207.97,63.77,220.62,C5H10Br2,"1,2-dibromo-3-methylbutane",10288-13-8,244.52,Yaw
CC(C)(Br)CCBr,2,4.081146407719209,1620.1059,207.97,63.77,220.62,C5H10Br2,"1,3-dibromo-3-methylbutane",24443-15-0,244.52,Yaw
CC(C)C(C)(Br)Br,2,4.081146407719209,1620.1059,207.97,63.77,220.62,C5H10Br2,"2,2-dibromo-3-methylbutane",62127-60-0,244.52,Yaw
CC(Br)C(C)(C)Br,2,4.0095564077192085,1594.072,208.565,62.06,221.27,C5H10Br2,"2,3-dibromo-2-methylbutane",594-51-4,288.0,Yaw
CC(C)(C)C(Br)Br,2,4.329636407719208,1710.3224,206.024,69.37,218.52,C5H10Br2,"1,1-dibromo-2,2-dimethylpropane",2443-91-6,287.15,Yaw
CC(C)(CBr)CBr,2,4.4433964077192085,1751.5552,205.19,71.77,217.65,C5H10Br2,"1,3-dibromo-2,2-dimethylpropane",5434-27-5,244.52,Yaw
CCC(CBr)CBr,2,4.4433964077192085,1751.5552,205.19,71.77,217.65,C5H10Br2,"1,3-dibromo-2-ethylpropane",---,244.52,Yaw
FCCCCCCl,2,5.214006407719209,1817.5839,216.255,39.93,153.7,C5H10ClF,1-chloro-5-fluoropentane,407-98-7,199.41114580461763,ML
CCCCC(Cl)Cl,2,3.8254564077192086,1378.5419,210.772,30.81,180.37,C5H10Cl2,"1,1-dichloropentane",820-55-3,198.1,Yaw
CCCC(Cl)CCl,"1,2",4.168816407719208,1518.0381,215.891,35.04,176.59,C5H10Cl2,"1,2-dichloropentane",1674-33-5,198.1,Yaw
CCC(Cl)CCCl,2,4.1007964077192085,1313.3809,170.686,48.88,174.96,C5H10Cl2,"1,3-dichloropentane",30122-12-4,198.1,Yaw
CC(Cl)CCCCl,"1,2",3.889576407719209,1286.3647,168.721,54.2,189.74,C5H10Cl2,"1,4-dichloropentane",626-92-6,198.1,Yaw
ClCCCCCCl,"1,2",4.371566407719208,1760.1884,222.595,58.93,209.83,C5H10Cl2,"1,5-dichloropentane",628-76-2,200.35,Yaw
CCCC(C)(Cl)Cl,"1,2",3.725866407719209,1137.2483,176.68,26.16,155.38,C5H10Cl2,"2,2-dichloropentane",34887-14-4,198.1,Yaw
CCC(Cl)C(C)Cl,"1,2",3.803386407719208,1195.1283,174.227,36.03,167.01,C5H10Cl2,"2,3-dichloropentane",600-11-3,195.85,Yaw
CC(Cl)CC(C)Cl,"1,2",4.131196407719209,1292.6348,171.396,43.61,166.09,C5H10Cl2,"2,4-dichloropentane",625-67-2,198.1,Yaw
CCC(Cl)(Cl)CC,"1,2",3.824596407719208,1170.7195,175.253,29.94,157.0,C5H10Cl2,"3,3-dichloropentane",21571-91-5,198.1,Yaw
CCC(C)C(Cl)Cl,2,3.886586407719209,1436.5749,220.036,29.05,180.62,C5H10Cl2,"1,1-dichloro-2-methylbutane",23010-05-1,198.1,Yaw
CC(C)CC(Cl)Cl,"1,2",3.843416407719209,1177.9606,176.888,28.9,155.65,C5H10Cl2,"1,1-dichloro-3-methylbutane",625-66-1,198.1,Yaw
CCC(C)(Cl)CCl,"1,2",5.097426407719209,1379.5374,165.134,32.56,122.49,C5H10Cl2,"1,2-dichloro-2-methylbutane",23010-04-0,198.1,Yaw
CC(C)C(Cl)CCl,"1,2",3.820676407719208,1209.6057,173.095,39.06,170.58,C5H10Cl2,"1,2-dichloro-3-methylbutane",600-10-2,198.1,Yaw
CC(Cl)C(C)CCl,2,4.385766407719209,1604.7488,216.31,39.77,176.55,C5H10Cl2,"1,3-dichloro-2-methylbutane",23010-07-3,198.1,Yaw
CC(C)(Cl)CCCl,2,3.752296407719209,1227.522,177.55,40.36,178.12,C5H10Cl2,"1,3-dichloro-3-methylbutane",624-96-4,198.1,Yaw
CC(CCl)CCCl,2,6.389066407719209,2771.098,284.136,50.95,171.03,C5H10Cl2,"1,4-dichloro-2-methylbutane",623-34-7,198.1,Yaw
CC(C)C(C)(Cl)Cl,2,5.666326407719209,2033.1329,209.221,60.17,169.72,C5H10Cl2,"2,2-dichloro-3-methylbutane",17773-66-9,198.1,Yaw
CC(Cl)C(C)(C)Cl,2,2.630536407719209,733.2238,129.146,33.38,185.61,C5H10Cl2,"2,3-dichloro-2-methylbutane",507-45-9,198.1,Yaw
CCC(CCl)CCl,2,4.150706407719209,1525.6635,217.978,34.97,178.33,C5H10Cl2,"1,3-dichloro-2-ethylpropane",---,198.1,Yaw
CC(C)(C)C(Cl)Cl,2,4.345176407719209,1591.1036,216.588,38.97,176.85,C5H10Cl2,"1,1-dichloro-2,2-dimethylpropane",29559-54-4,198.1,Yaw
CC(C)(CCl)CCl,2,3.652816407719208,1171.9885,171.257,40.54,178.4,C5H10Cl2,"1,3-dichloro-2,2-dimethylpropane",29559-55-5,198.1,Yaw
CC(Cl)COCCCl,3,3.872816407719209,1756.043,234.92,28.85,256.72,C5H10Cl2O,(2-chloroethyl)(2-chloropropyl)ether,42434-29-7,254.297618630618,ML
ClCCOCOCCCl,3,4.490836407719208,2277.1349,261.63,52.85,281.86,C5H10Cl2O2,bis(2-chloroethoxy)methane,111-91-1,240.85,Yaw
CC=C[SiH2]CC(Cl)Cl,3,4.2253264077192085,1593.69,226.86,34.14,179.25,C5H10Cl2Si,dichloroethyl-propenylsilane,18163-64-9,233.78213566476953,ML
[Cl-].[Cl-].[Cl-].[Ti+3]C1=CC=CC1,3,8.590286407719208,4693.0,273.15,175.04,293.0,C5H10Cl3Ti,(cyclopentadienyl)-titanium chloride,900001-67-4,443.15,Yaw
CCCCC(F)F,3,3.5362964077192087,1109.1066,226.677,-21.94,116.14,C5H10F2,"1,1-difluoropentane",62127-40-6,177.1,Yaw
CCCC(F)CF,3,3.4398964077192087,963.9839,193.277,-12.1,113.83,C5H10F2,"1,2-difluoropentane",62126-94-7,177.1,Yaw
CCC(F)CCF,3,3.624306407719208,1010.581,191.875,-8.3,112.22,C5H10F2,"1,3-difluoropentane",62126-95-8,177.1,Yaw
CC(F)CCCF,3,3.865986407719209,1071.4644,190.193,-3.75,110.36,C5H10F2,"1,4-difluoropentane",62126-96-9,177.1,Yaw
FCCCCCF,3,4.931466407719209,1343.9349,185.564,11.72,104.68,C5H10F2,"1,5-difluoropentane",373-17-1,177.1,Yaw
CCCC(C)(F)F,"1,2",3.794176407719209,970.8269,196.023,-24.95,81.9,C5H10F2,"2,2-difluoropentane",371-65-3,175.05,Yaw
CCC(F)C(C)F,3,3.835016407719209,1249.7195,238.912,-20.27,114.72,C5H10F2,"2,3-difluoropentane",66688-46-8,177.1,Yaw
CC(F)CC(C)F,3,3.9116964077192087,1272.5323,238.356,-18.67,114.08,C5H10F2,"2,4-difluoropentane",66688-47-9,177.1,Yaw
CCC(F)(F)CC,3,2.8915664077192087,817.7653,195.852,-24.5,119.82,C5H10F2,"3,3-difluoropentane",358-03-2,179.15,Yaw
CCC(C)C(F)F,3,3.7350564077192088,1219.9491,239.662,-22.43,115.59,C5H10F2,"1,1-difluoro-2-methylbutane",66688-67-3,177.1,Yaw
CC(C)CC(F)F,3,3.771616407719209,1230.8414,239.384,-21.63,115.26,C5H10F2,"1,1-difluoro-3-methylbutane",53731-22-9,177.1,Yaw
CCC(C)(F)CF,3,3.808716407719209,1241.8902,239.106,-20.83,114.94,C5H10F2,"1,2-difluoro-2-methylbutane",66688-68-4,177.1,Yaw
CC(C)C(F)CF,3,3.846376407719209,1253.0992,238.828,-20.03,114.62,C5H10F2,"1,2-difluoro-3-methylbutane",66688-69-5,177.1,Yaw
CC(F)C(C)CF,3,3.8845964077192088,1264.472,238.55,-19.23,114.3,C5H10F2,"1,3-difluoro-2-methylbutane",66688-43-5,177.1,Yaw
CC(C)(F)CCF,3,3.923406407719209,1276.0122,238.272,-18.43,113.99,C5H10F2,"1,3-difluoro-3-methylbutane",66688-44-6,177.1,Yaw
CC(CF)CCF,3,3.560006407719209,1167.7212,241.052,-26.43,117.26,C5H10F2,"1,4-difluoro-2-methylbutane",66688-45-7,177.1,Yaw
CC(C)C(C)(F)F,3,3.560006407719209,1167.7212,241.052,-26.43,117.26,C5H10F2,"2,2-difluoro-3-methylbutane",51891-58-8,177.1,Yaw
CC(F)C(C)(C)F,3,3.560006407719209,1167.7212,241.052,-26.43,117.26,C5H10F2,"2,3-difluoro-2-methylbutane",53731-25-2,177.1,Yaw
CCC(CF)CF,3,3.6635264077192087,1198.621,240.218,-24.03,116.25,C5H10F2,"1,3-difluoro-2-ethylpropane",---,177.1,Yaw
CC(C)(C)C(F)F,3,3.560006407719209,1167.7212,241.052,-26.43,117.26,C5H10F2,"1,1-difluoro-2,2-dimethylpropane",53731-23-0,177.1,Yaw
CC(C)(CF)CF,3,3.560006407719209,1167.7212,241.052,-26.43,117.26,C5H10F2,"1,3-difluoro-2,2-dimethylpropane",66688-66-2,177.1,Yaw
FCCOCOCCF,3,6.407586407719208,2730.6,273.15,56.3,174.01,C5H10F2O2,bis(2-fluoroethoxy)-methane,373-40-0,231.55208879961916,ML
CCCCC(I)I,2,3.912476407719209,1798.5944,190.012,120.45,308.01,C5H10I2,"1,1-diiodopentane",66688-35-5,282.15,Yaw
CCCC(I)CI,2,4.025096407719209,1845.8889,188.9,123.65,306.77,C5H10I2,"1,2-diiodopentane",998-76-5,282.15,Yaw
CCC(I)CCI,2,4.142756407719209,1895.2412,187.788,126.85,305.54,C5H10I2,"1,3-diiodopentane",66688-36-6,282.15,Yaw
CC(I)CCCI,2,4.265806407719209,1946.7927,186.676,130.05,304.35,C5H10I2,"1,4-diiodopentane",55930-45-5,282.15,Yaw
ICCCCCI,"1,2",3.801136407719208,1811.4813,185.564,133.25,331.99,C5H10I2,"1,5-diiodopentane",628-77-3,282.15,Yaw
CCCC(C)(I)I,2,3.6509964077192087,1688.5367,192.792,112.45,311.25,C5H10I2,"2,2-diiodopentane",66688-37-7,282.15,Yaw
CCC(I)C(C)I,2,3.7523264077192087,1731.2305,191.68,115.65,309.94,C5H10I2,"2,3-diiodopentane",66688-38-8,282.15,Yaw
CC(I)CC(C)I,2,3.857966407719209,1775.6779,190.568,118.85,308.65,C5H10I2,"2,4-diiodopentane",66719-29-7,282.15,Yaw
CCC(I)(I)CC,2,3.6509964077192087,1688.5367,192.792,112.45,311.25,C5H10I2,"3,3-diiodopentane",66688-39-9,282.15,Yaw
CCC(C)C(I)I,2,3.6509964077192087,1688.5367,192.792,112.45,311.25,C5H10I2,"1,1-diiodo-2-methylbutane",66688-50-4,282.15,Yaw
CC(C)CC(I)I,2,3.7523264077192087,1731.2305,191.68,115.65,309.94,C5H10I2,"1,1-diiodo-3-methylbutane",66688-51-5,282.15,Yaw
CCC(C)(I)CI,2,3.857966407719209,1775.6779,190.568,118.85,308.65,C5H10I2,"1,2-diiodo-2-methylbutane",66688-52-6,282.15,Yaw
CC(I)C(C)CI,2,3.968176407719208,1821.9928,189.456,122.05,307.39,C5H10I2,"1,3-diiodo-2-methylbutane",66688-54-8,282.15,Yaw
CC(CI)CCI,2,4.083276407719208,1870.2992,188.344,125.25,306.15,C5H10I2,"1,4-diiodo-2-methylbutane",66688-32-2,282.15,Yaw
CC(C)C(I)CI,2,3.4148264077192083,1588.8051,195.572,104.45,314.68,C5H10I2,"1,2-diiodo-3-methylbutane",66688-53-7,282.15,Yaw
CC(C)(I)CCI,2,3.506496407719209,1627.5565,194.46,107.65,313.29,C5H10I2,"1,3-diiodo-3-methylbutane",66688-55-9,282.15,Yaw
CC(C)C(C)(I)I,2,3.6018564077192083,1667.8142,193.348,110.85,311.92,C5H10I2,"2,2-diiodo-3-methylbutane",66688-33-3,282.15,Yaw
CC(I)C(C)(C)I,2,3.4148264077192083,1588.8051,195.572,104.45,314.68,C5H10I2,"2,3-diiodo-2-methylbutane",66688-34-4,282.15,Yaw
CCC(CI)CI,2,3.778326407719209,1742.1737,191.402,116.45,309.61,C5H10I2,"1,3-diiodo-2-ethylpropane",---,282.15,Yaw
CC(C)(C)C(I)I,2,3.529976407719209,1637.4762,194.182,108.45,312.94,C5H10I2,"1,1-diiodo-2,2-dimethylpropane",2443-89-2,282.15,Yaw
CC(C)(CI)CI,2,3.6262964077192086,1678.1247,193.07,111.65,311.59,C5H10I2,"1,3-diiodo-2,2-dimethylpropane",66688-49-1,282.15,Yaw
CN(C)CCC#N,"1,2",5.058926407719208,2173.0113,256.49,51.1,200.23,C5H10N2,3-(dimethylamino)propanenitrile,1738-25-6,257.59940576786965,ML
O=[N+]([O-])CCCCC[N+](=O)[O-],3,4.903346407719209,2105.5685,190.595,119.77,266.91,C5H10N2O4,"1,5-dinitropentane",6848-84-6,298.2153650767571,ML
CCCCC=O,"1,2",4.404176407719208,1455.1344,227.549,3.98,127.09,C5H10O,pentanal,110-62-3,182.0,Yaw
CCC(C)C=O,"1,2",4.360506407719209,1338.0231,215.0,-0.62,114.6,C5H10O,2-methylbutanal,96-17-3,205.77,Yaw
CC(C)CC=O,"1,2",4.306106407719208,1323.052,215.0,-1.15,115.34,C5H10O,3-methylbutanal,590-86-3,168.15,Yaw
CC(C)(C)C=O,"1,2",4.1019464077192085,1188.9494,215.0,-16.27,97.81,C5H10O,"2,2-dimethylpropanal",630-19-3,267.15,Yaw
CCCC(C)=O,"1,2",4.493666407719209,1553.0135,243.751,-0.12,126.66,C5H10O,methyl propyl ketone,107-87-9,196.29,Yaw
CC(=O)C(C)C,"1,2",4.185416407719209,1265.9677,208.621,0.07,117.29,C5H10O,methyl isopropyl ketone,563-80-4,180.15,Yaw
CCC(=O)CC,"1,2",4.385936407719209,1462.1872,231.531,1.79,126.42,C5H10O,diethyl ketone,96-22-0,234.18,Yaw
CC1CCCO1,"1,2",4.420816407719209,1382.0045,233.763,-14.45,101.69,C5H10O,2-methyltetrahydrofuran,96-47-9,137.05,Yaw
CC1CCOC1,2,9.96925640771921,2956.2393,217.7,31.77,88.07,C5H10O,3-methyltetrahydrofuran,13423-15-9,136.15,Yaw
C=CCOCC,"1,2",4.783806407719209,1451.0304,237.272,-19.55,86.42,C5H10O,allyl ethyl ether,557-31-3,133.15,Yaw
C=COC(C)C,2,4.054576407719209,1254.7733,240.635,-29.23,93.65,C5H10O,isopropyl vinyl ether,926-65-8,133.15,Yaw
C=C(C)COC,"1,2",4.742016407719209,1439.8592,237.438,-20.03,86.78,C5H10O,3-methoxy-2-methyl-1-propene,22418-49-1,133.15,Yaw
C=COCCC,2,4.498306407719209,1380.2131,237.994,-21.63,90.84,C5H10O,propyl vinyl ether,764-47-6,133.15,Yaw
OC1CCCC1,"1,2",5.208586407719208,1828.7535,211.254,46.7,161.39,C5H10O,cyclopentanol,96-41-3,254.15,Yaw
CCC=CCO,2,5.760436407719208,1967.3951,217.7,39.77,142.67,C5H10O,2-penten-1-ol,20273-24-9,193.56,Yaw
CC=CCCO,2,5.598056407719209,1915.8271,218.395,37.77,143.28,C5H10O,3-penten-1-ol,---,287.34,Yaw
C=CCCCO,"1,2",4.899646407719208,1734.2053,218.395,14.19,158.72,C5H10O,4-penten-1-ol,821-09-0,287.34,Yaw
CC=CC(C)O,2,4.664076407719208,1617.5851,222.982,14.19,147.76,C5H10O,trans-1-methyl-2-buten-1-ol,3899-34-1,287.34,Yaw
CC=C(C)CO,2,5.896016407719209,2010.4207,217.144,41.37,142.18,C5H10O,2-methyl-2-buten-1-ol,4675-87-0,287.34,Yaw
CC(C)=CCO,"1,2",4.899656407719209,1750.131,217.144,40.97,163.43,C5H10O,3-methyl-2-buten-1-ol,556-82-1,316.67,Yaw
C=CCC(C)O,"1,2",4.899116407719209,1663.2776,223.955,21.37,137.78,C5H10O,1-methyl-3-buten-1-ol,625-31-0,298.89,Yaw
C=CC(C)CO,"1,2",4.899106407719208,1680.9591,222.565,25.37,143.01,C5H10O,2-methyl-3-buten-1-ol,4516-90-9,306.67,Yaw
C=C(C)CCO,2,5.303276407719208,1821.5776,219.646,33.91,144.51,C5H10O,3-methyl-3-buten-1-ol,763-32-6,309.44,Yaw
C=CC(C)(C)O,2,3.831636407719208,1350.7168,228.681,7.77,153.89,C5H10O,2-methyl-3-buten-2-ol,115-18-4,230.15,Yaw
C=C(C)C(C)O,2,4.344316407719209,1515.3211,224.97,14.19,149.8,C5H10O,3-methyl-3-buten-2-ol,10473-14-0,287.34,Yaw
C=CC(O)CC,"1,2",4.8732964077192085,1653.4293,224.233,14.19,137.39,C5H10O,1-penten-3-ol,616-25-1,287.34,Yaw
C1CCOCC1,"1,2",3.989316407719208,1226.3139,219.549,-15.0,112.94,C5H10O,tetrahydropyran,142-68-7,224.05,Yaw
CC=COCC,2,4.763176407719208,1454.8624,236.604,-17.63,89.44,C5H10O,ethyl propenyl ether,928-55-2,133.15,Yaw
CC=COSCC,3,4.260106407719209,1976.3992,273.15,42.85,226.06,C5H10OS,methylvinyloxyethyl sulfide,6607-53-0,205.88659392103713,ML
CCCCC(=O)O,"1,2",4.767706407719209,1842.0816,200.516,76.55,211.89,C5H10O2,pentanoic acid,109-52-4,239.15,Yaw
CCC(C)C(=O)O,"1,2",4.867716407719208,1897.6806,215.0,66.2,200.55,C5H10O2,2-methylbutanoic acid,116-53-0,218.15,Yaw
CC(C)CC(=O)O,"1,2",4.871836407719209,1843.4041,203.53,69.46,199.77,C5H10O2,3-methylbutanoic acid,503-74-2,243.85,Yaw
CC(C)(C)C(=O)O,2,4.020256407719208,1292.7556,153.82,35.93,193.77,C5H10O2,"2,2-dimethylpropanoic acid",75-98-9,309.08,Yaw
CCCCOC=O,"1,2",4.4703064077192085,1541.9232,238.376,4.4,131.45,C5H10O2,butyl formate,592-84-7,181.25,Yaw
CCC(C)OC=O,"1,2",3.640026407719208,1073.6135,195.097,-0.63,126.44,C5H10O2,sec-butyl formate,589-40-2,179.3,Yaw
CC(C)COC=O,"1,2",4.328356407719209,1346.0108,213.125,3.65,121.09,C5H10O2,isobutyl formate,542-55-2,177.35,Yaw
CC(C)(C)OC=O,"1,2",3.881106407719209,1056.3553,189.629,-6.29,105.44,C5H10O2,tert-butyl formate,762-75-4,179.3,Yaw
CCCOC(C)=O,"1,2",4.340026407719209,1407.5142,222.76,3.5,125.72,C5H10O2,propyl acetate,109-60-4,178.15,Yaw
CC(=O)OC(C)C,"1,2",4.362206407719208,1407.6425,233.84,-8.37,112.77,C5H10O2,isopropyl acetate,108-21-4,199.75,Yaw
CCOC(=O)CC,"1,2",4.314376407719209,1375.5684,219.783,2.25,122.96,C5H10O2,ethyl propanoate,105-37-3,199.25,Yaw
CCCC(=O)OC,"1,2",4.3626664077192086,1411.1588,221.612,4.41,125.82,C5H10O2,methyl butanoate,623-42-7,187.35,Yaw
COC(=O)C(C)C,"1,2",4.456506407719209,1436.1314,230.405,-3.79,115.19,C5H10O2,methyl isobutanoate,547-63-7,188.45,Yaw
OCC1CCCO1,"1,2",5.778916407719208,2725.4829,293.125,62.69,204.42,C5H10O2,tetrahydrofurfuryl alcohol,97-99-4,193.15,Yaw
CC1CCS(=O)(=O)C1,"1,2",4.501636407719209,2165.4094,204.177,135.1,311.32,C5H10O2S,3-methyl sulfolane,872-93-5,273.65,Yaw
CCOC(=O)OCC,"1,2",4.729746407719209,1741.0586,241.309,22.07,151.82,C5H10O3,diethyl carbonate,105-58-8,230.15,Yaw
CCOC(=O)C(C)O,"1,2",6.238676407719209,2926.2467,315.049,45.35,177.78,C5H10O3,ethyl lactate,97-64-3,247.15,Yaw
COCCOC(C)=O,"1,2",4.942836407719208,1866.4717,234.612,38.92,167.49,C5H10O3,ethylene glycol monomethyl ether acetate,110-49-6,203.15,Yaw
C1CCSCC1,"1,2",4.135896407719208,1491.2062,218.802,18.99,170.05,C5H10S,thiacyclohexane,1613-51-0,292.14,Yaw
CC1SC1(C)C,2,2.8652664077192087,1067.0448,230.825,-6.0,185.3,C5H10S,"2,2,3-trimethylthiacyclopropane",53971-47-4,198.5921535630116,ML
CC1CCCS1,"1,2",3.927506407719209,1380.8942,215.026,22.72,165.75,C5H10S,2-methylthiacyclopentane,1795-09-1,172.44,Yaw
CC1CCSC1,"1,2",4.071746407719209,1433.9019,213.832,27.06,166.44,C5H10S,3-methylthiacyclopentane,4740-00-5,191.99,Yaw
SC1CCCC1,"1,2",4.208456407719209,1480.2867,220.191,18.0,158.65,C5H10S,cyclopentanethiol,1679-07-8,155.39,Yaw
C=CCSCC,3,1.040086407719209,240.818,67.853,14.59,257.99,C5H10S,allyl ethyl sulfide,5296-62-8,177.45635109735704,ML
CCCCCBr,"1,2",5.589786407719208,2178.832,263.938,27.72,148.04,C5H11Br,1-bromopentane,110-53-2,185.26,Yaw
CCCC(C)Br,"1,2",4.431406407719209,1550.9813,233.147,12.56,142.36,C5H11Br,2-bromopentane,107-81-3,177.65,Yaw
CCC(Br)CC,"1,2",4.397996407719209,1542.2549,232.023,13.61,144.42,C5H11Br,3-bromopentane,1809-10-5,146.95,Yaw
CCC(C)CBr,2,3.876966407719209,1169.7806,178.797,24.37,148.33,C5H11Br,1-bromo-2-methylbutane,10422-35-2,167.75,Yaw
CC(C)CCBr,"1,2",4.380156407719209,1544.1348,231.679,14.95,146.87,C5H11Br,1-bromo-3-methylbutane,107-82-4,161.15,Yaw
CCC(C)(C)Br,"1,2",3.907046407719209,1122.5516,180.465,13.48,130.84,C5H11Br,2-bromo-2-methylbutane,507-36-8,167.75,Yaw
CC(C)C(C)Br,2,3.6294864077192086,1097.0256,179.324,19.76,150.27,C5H11Br,2-bromo-3-methylbutane,18295-25-5,167.75,Yaw