smiles,code,A [log10(atm)],B [C],C [C],TMIN [C],TMAX [C],FORMULA,NAME,CAS No,mp [K],mp_type
CC(C(C)(C)C)C(C)(C)C,"1,2",4.069646407719208,1544.8542,220.304,39.32,189.62,C10H22,"2,2,3,4,4-pentamethylpentane",16747-45-8,234.41,Yaw
CCCCCC(CC)CC,"1,2",4.235846407719209,1601.7952,211.642,50.23,195.44,C10H22,3-ethyloctane,5881-17-4,185.46,Yaw
CCCCC(CC)CCC,"1,2",4.240276407719208,1599.2196,213.5,47.76,192.47,C10H22,4-ethyloctane,15869-86-0,185.46,Yaw
CCCC(CCC)CCC,"1,2",4.2020064077192085,1541.6655,209.378,44.07,185.82,C10H22,4-propylheptane,3178-29-8,219.16,Yaw
CCCC(CCC)C(C)C,"1,2",4.198786407719209,1568.3343,214.611,43.36,187.76,C10H22,4-isopropylheptane,52896-87-4,219.16,Yaw
CCCCC(CC)C(C)C,"1,2",4.189476407719209,1568.6372,213.214,45.2,190.2,C10H22,3-ethyl-2-methylheptane,14676-29-0,219.16,Yaw
CCCC(CC)CC(C)C,"1,2",4.1950864077192085,1550.6043,213.414,41.79,184.78,C10H22,4-ethyl-2-methylheptane,52896-88-5,219.16,Yaw
CCC(CC)CCC(C)C,"1,2",4.188506407719209,1557.1568,212.059,44.5,188.5,C10H22,5-ethyl-2-methylheptane,13475-78-0,219.16,Yaw
CCCCC(C)(CC)CC,"1,2",4.170836407719209,1581.4805,215.366,45.96,193.31,C10H22,3-ethyl-3-methylheptane,17302-01-1,219.16,Yaw
CCCC(CC)C(C)CC,"1,2",4.209876407719209,1591.9861,215.945,45.43,191.33,C10H22,4-ethyl-3-methylheptane,52896-89-6,219.16,Yaw
CCC(C)CC(CC)CC,"1,2",4.165776407719209,1535.3884,210.362,43.56,186.92,C10H22,3-ethyl-5-methylheptane,52896-90-9,219.16,Yaw
CCCC(C)C(CC)CC,"1,2",4.203536407719208,1589.6138,215.151,46.11,192.18,C10H22,3-ethyl-4-methylheptane,52896-91-0,219.16,Yaw
CCCC(C)(CC)CCC,"1,2",4.170816407719209,1570.2301,215.67,43.8,190.1,C10H22,4-ethyl-4-methylheptane,17302-04-4,219.16,Yaw
CCCC(C(C)C)C(C)C,"1,2",4.286266407719209,1703.4922,230.72,45.5,196.73,C10H22,3-isopropyl-2-methylhexane,62016-13-1,219.16,Yaw
CCCC(CC)(CC)CC,"1,2",4.183766407719209,1606.7305,217.729,47.21,196.08,C10H22,"3,3-diethylhexane",17302-02-2,219.16,Yaw
CCC(CC)C(CC)CC,"1,2",4.223846407719209,1613.6055,218.113,46.21,193.23,C10H22,"3,4-diethylhexane",19398-77-7,219.16,Yaw
CCCC(CC)C(C)(C)C,"1,2",4.118806407719209,1527.8376,214.832,39.82,185.36,C10H22,"3-ethyl-2,2-dimethylhexane",20291-91-2,219.16,Yaw
CCC(CC)CC(C)(C)C,"1,2",4.095866407719209,1468.7019,211.571,34.17,175.45,C10H22,"4-ethyl-2,2-dimethylhexane",52896-99-8,219.16,Yaw
CCCC(C)(CC)C(C)C,"1,2",4.133646407719208,1569.3101,215.933,44.99,193.53,C10H22,"3-ethyl-2,3-dimethylhexane",52897-00-4,219.16,Yaw
CCC(CC)C(C)C(C)C,"1,2",4.167366407719209,1569.991,215.824,43.76,190.24,C10H22,"4-ethyl-2,3-dimethylhexane",52897-01-5,219.16,Yaw
CCC(C)C(CC)C(C)C,"1,2",4.174126407719209,1572.8873,216.708,43.06,189.4,C10H22,"3-ethyl-2,4-dimethylhexane",7220-26-0,219.16,Yaw
CCC(C)(CC)CC(C)C,"1,2",4.230806407719209,1618.7443,221.499,43.36,190.42,C10H22,"4-ethyl-2,4-dimethylhexane",52897-03-7,219.16,Yaw
CCC(CC(C)C)C(C)C,"1,2",4.153316407719209,1529.4619,214.141,39.33,182.89,C10H22,"3-ethyl-2,5-dimethylhexane",52897-04-8,219.16,Yaw
CCC(CC)C(C)(C)CC,"1,2",4.138656407719209,1571.5825,216.822,44.26,192.7,C10H22,"4-ethyl-3,3-dimethylhexane",52897-05-9,219.16,Yaw
CCC(C)C(C)(CC)CC,"1,2",4.145476407719209,1574.729,217.757,43.55,191.85,C10H22,"3-ethyl-3,4-dimethylhexane",52897-06-0,219.16,Yaw
CC(C)C(C(C)C)C(C)C,"1,2",4.097216407719209,1512.8834,212.197,40.88,186.33,C10H22,"2,4-dimethyl-3-isopropylpentane",13475-79-1,191.46,Yaw
CCC(CC)(CC)C(C)C,"1,2",4.156096407719208,1615.7721,219.062,48.59,200.07,C10H22,"3,3-diethyl-2-methylpentane",52897-16-2,191.46,Yaw
CCC(C)(CC)C(C)(C)C,"1,2",4.109436407719208,1608.6316,221.938,46.6,200.45,C10H22,"3-ethyl-2,2,3-trimethylpentane",52897-17-3,191.46,Yaw
CCC(C(C)C)C(C)(C)C,"1,2",4.102006407719209,1529.6815,217.601,38.08,184.84,C10H22,"3-ethyl-2,2,4-trimethylpentane",52897-18-4,191.46,Yaw
CCC(C)(C(C)C)C(C)C,"1,2",4.140366407719209,1619.0865,221.599,47.3,200.11,C10H22,"3-ethyl-2,3,4-trimethylpentane",52897-19-5,191.46,Yaw
CCCCCCCCCCO,"1,2",5.0645264077192085,2145.9319,191.869,117.11,258.63,C10H22O,1-decanol,112-30-1,280.05,Yaw
CCCCCCCCC(C)O,"1,2",5.400236407719209,2196.7539,195.738,105.97,235.06,C10H22O,2-decanol,1120-06-5,270.75,Yaw
CCCCCCCC(O)CC,2,4.9530164077192085,2036.3175,197.726,100.25,240.0,C10H22O,3-decanol,1565-81-7,268.15,Yaw
CCCCCCC(O)CCC,"1,2",5.087896407719208,2077.0544,197.684,100.37,236.22,C10H22O,4-decanol,2051-31-2,261.75,Yaw
CCCCCC(O)CCCC,2,4.589086407719209,1897.9847,200.186,93.17,242.44,C10H22O,5-decanol,5205-34-5,281.85,Yaw
CC(C)CCCCCCCO,2,5.423216407719208,2214.5533,194.946,108.25,237.4,C10H22O,isodecanol,25339-17-7,213.15,Yaw
CCCCCCCC(C)CO,"1,2",5.109046407719209,2127.141,194.348,109.97,248.07,C10H22O,2-methyl-1-nonanol,40589-14-8,271.62,Yaw
CCCCCC(C)CCCO,2,5.233966407719208,2142.8728,196.016,105.17,238.39,C10H22O,4-methyl-1-nonanol,1489-47-0,271.62,Yaw
CCCCC(C)CCCCO,2,5.132886407719209,2104.559,196.614,103.45,238.95,C10H22O,5-methyl-1-nonanol,2768-16-3,271.62,Yaw
CCC(C)CCCCCCO,2,5.132886407719209,2104.559,196.614,103.45,238.95,C10H22O,7-methyl-1-nonanol,33234-93-4,271.62,Yaw
CCCCCCC(C)CCO,2,5.132886407719209,2104.559,196.614,103.45,238.95,C10H22O,3-methyl-1-nonanol,22663-64-5,271.62,Yaw
CCCCCCCC(C)(C)O,2,5.132886407719209,2104.559,196.614,103.45,238.95,C10H22O,2-methyl-2-nonanol,10297-57-1,271.62,Yaw
CCCCCCC(C)C(C)O,2,5.132886407719209,2104.559,196.614,103.45,238.95,C10H22O,3-methyl-2-nonanol,60671-32-1,271.62,Yaw
CCCCC(C)CCC(C)O,2,5.132886407719209,2104.559,196.614,103.45,238.95,C10H22O,5-methyl-2-nonanol,66731-95-1,271.62,Yaw
CCCC(C)CCCC(C)O,2,5.132886407719209,2104.559,196.614,103.45,238.95,C10H22O,6-methyl-2-nonanol,66256-60-8,271.62,Yaw
CCC(C)CCCCC(C)O,2,5.132886407719209,2104.559,196.614,103.45,238.95,C10H22O,7-methyl-2-nonanol,66256-61-9,271.62,Yaw
CC(C)CCCCCC(C)O,2,5.132886407719209,2104.559,196.614,103.45,238.95,C10H22O,8-methyl-2-nonanol,14779-92-1,271.62,Yaw
CCCCCCC(O)C(C)C,"1,2",5.114026407719209,2078.9987,198.129,99.09,233.83,C10H22O,2-methyl-3-nonanol,26533-33-5,271.62,Yaw
CCCCCCC(C)(O)CC,2,4.909626407719209,2019.8441,198.004,99.45,240.27,C10H22O,3-methyl-3-nonanol,21078-72-8,271.62,Yaw
CCCCC(C)CC(O)CC,2,4.909626407719209,2019.8441,198.004,99.45,240.27,C10H22O,5-methyl-3-nonanol,66719-43-5,271.62,Yaw
CCCCCC(O)CC(C)C,2,4.909626407719209,2019.8441,198.004,99.45,240.27,C10H22O,2-methyl-4-nonanol,26533-31-3,271.62,Yaw
CCCCCC(C)(O)CCC,2,4.909626407719209,2019.8441,198.004,99.45,240.27,C10H22O,4-methyl-4-nonanol,23418-38-4,271.62,Yaw
CCCCC(C)C(O)CCC,2,4.909626407719209,2019.8441,198.004,99.45,240.27,C10H22O,5-methyl-4-nonanol,66719-44-6,271.62,Yaw
CCCC(O)CCC(C)CC,2,4.909626407719209,2019.8441,198.004,99.45,240.27,C10H22O,7-methyl-4-nonanol,26981-98-6,271.62,Yaw
CCCCC(O)CCC(C)C,2,4.909626407719209,2019.8441,198.004,99.45,240.27,C10H22O,2-methyl-5-nonanol,29843-62-7,271.62,Yaw
CCCCC(O)CC(C)CC,2,4.909626407719209,2019.8441,198.004,99.45,240.27,C10H22O,3-methyl-5-nonanol,66779-42-4,271.62,Yaw
CCCCC(C)(O)CCCC,2,4.628046407719209,1912.8115,199.908,93.97,242.15,C10H22O,5-methyl-5-nonanol,33933-78-7,271.62,Yaw
CCCCCCC(CC)CO,2,4.909626407719209,2019.8441,198.004,99.45,240.27,C10H22O,2-ethyl-1-octanol,20592-10-3,271.62,Yaw
CCCCCC(CC)CCO,2,4.909626407719209,2019.8441,198.004,99.45,240.27,C10H22O,3-ethyl-1-octanol,66719-36-6,271.62,Yaw
CCCCCCC(C)(C)CO,"1,2",5.114176407719208,2077.5828,198.24,98.77,233.41,C10H22O,"2,2-dimethyl-1-octanol",2370-14-1,271.62,Yaw
CCC(C)CCCC(C)CO,2,4.9530164077192085,2036.3175,197.726,100.25,240.0,C10H22O,"2,6-dimethyl-1-octanol",62417-08-7,271.62,Yaw
CC(C)CCCC(C)CCO,2,5.048416407719208,2072.5199,197.128,101.97,239.43,C10H22O,"3,7-dimethyl-1-octanol",106-21-8,271.62,Yaw
CCCC(C)C(C)CCCO,2,5.041666407719209,2069.9587,197.17,101.85,239.47,C10H22O,"4,5-dimethyl-1-octanol",66719-32-2,271.62,Yaw
CCC(C)CC(C)CCCO,2,5.041666407719209,2069.9587,197.17,101.85,239.47,C10H22O,"4,6-dimethyl-1-octanol",66719-33-3,271.62,Yaw
CC(C)CCC(C)CCCO,2,5.041666407719209,2069.9587,197.17,101.85,239.47,C10H22O,"4,7-dimethyl-1-octanol",66719-34-4,271.62,Yaw
CC(C)(C)CCCCCCO,2,5.041666407719209,2069.9587,197.17,101.85,239.47,C10H22O,"7,7-dimethyl-1-octanol",66719-35-5,271.62,Yaw
CCCCC(C)CC(C)(C)O,2,5.041666407719209,2069.9587,197.17,101.85,239.47,C10H22O,"2,4-dimethyl-2-octanol",18675-20-2,271.62,Yaw
CCC(C)CCCC(C)(C)O,2,5.041666407719209,2069.9587,197.17,101.85,239.47,C10H22O,"2,6-dimethyt-2-octanol",18479-57-7,271.62,Yaw
CC(C)CCCCC(C)(C)O,2,5.041666407719209,2069.9587,197.17,101.85,239.47,C10H22O,"2,7-dimethyl-2-octanol",42007-73-8,271.62,Yaw
CC(C)CCCC(C)C(C)O,2,5.041666407719209,2069.9587,197.17,101.85,239.47,C10H22O,"3,7-dimethyl-2-octanol",15340-96-2,271.62,Yaw
CCCCCC(O)(CC)CC,"1,2",5.117606407719209,2045.7256,200.742,91.57,223.98,C10H22O,3-ethyl-3-octanol,2051-32-3,271.62,Yaw
CCC(O)CCC(CC)CC,2,4.5070464077192085,1866.7505,200.784,91.45,243.04,C10H22O,6-ethyl-3-octanol,19781-27-2,271.62,Yaw
CCCCCC(O)C(C)(C)C,2,4.324936407719209,1797.3342,202.174,87.45,244.49,C10H22O,"2,2-dimethyl-3-octanol",19841-72-6,271.62,Yaw
CCCCCC(C)(O)C(C)C,"1,2",5.121526407719209,2010.6843,203.495,83.65,213.62,C10H22O,"2,3-dimethyl-3-octanol",19781-10-3,271.62,Yaw
CC(C)CCCC(O)C(C)C,2,4.330236407719209,1799.3541,202.132,87.57,244.45,C10H22O,"2,7-dimethyl-3-octanol",66719-55-9,271.62,Yaw
CCCC(C)CC(C)(O)CC,2,4.289896407719208,1783.9638,202.452,86.65,244.78,C10H22O,"3,5-dimethyl-3-octanol",56065-42-0,271.62,Yaw
CCC(C)CCC(C)(O)CC,2,4.260456407719208,1772.7275,202.688,85.97,245.04,C10H22O,"3,6-dimethyl-3-octanol",151-19-9,205.65,Yaw
CCC(C)(O)CCCC(C)C,"1,2",5.174486407719209,2051.302,201.576,89.17,219.34,C10H22O,"3,7-dimethyl-3-octanol",78-69-3,271.62,Yaw
CCCCC(O)C(CC)CC,2,4.289896407719208,1783.9638,202.452,86.65,244.78,C10H22O,3-ethyl-4-octanol,63126-48-7,271.62,Yaw
CCCCC(O)(CC)CCC,2,4.289896407719208,1783.9638,202.452,86.65,244.78,C10H22O,4-ethyl-4-octanol,38395-42-5,271.62,Yaw
CCCCC(O)CC(C)(C)C,2,4.192406407719209,1746.7445,203.244,84.37,245.63,C10H22O,"2,2-dimethyl-4-octanol",66719-52-6,271.62,Yaw
CCCCC(C)(O)CC(C)C,2,4.221116407719209,1757.7102,203.008,85.05,245.38,C10H22O,"2,4-dimethyl-4-octanol",33933-79-8,271.62,Yaw
CCCC(C)C(O)CC(C)C,2,4.221116407719209,1757.7102,203.008,85.05,245.38,C10H22O,"2,5-dimethyl-4-octanol",66719-53-7,271.62,Yaw
CCC(C)CC(O)CC(C)C,2,4.365786407719209,1812.9163,201.854,88.37,244.15,C10H22O,"2,6-dimethyl-4-octanol",66719-54-8,271.62,Yaw
CC(C)CCC(O)CC(C)C,2,4.628046407719209,1912.8115,199.908,93.97,242.15,C10H22O,"2,7-dimethyl-4-octanol",19781-11-4,271.62,Yaw
CCCCC(C)(O)C(C)CC,2,4.221116407719209,1757.7102,203.008,85.05,245.38,C10H22O,"3,4-dimethyl-4-octanol",66719-30-0,271.62,Yaw
CCC(C)CC(O)C(C)CC,2,4.221116407719209,1757.7102,203.008,85.05,245.38,C10H22O,"3,6-dimethyl-4-octanol",66719-31-1,271.62,Yaw
CCCC(C)(O)CC(C)CC,2,4.221116407719209,1757.7102,203.008,85.05,245.38,C10H22O,"4,6-dimethyl-4-octanol",56065-43-1,271.62,Yaw
CCCC(C)(O)CCC(C)C,"1,2",5.120366407719208,2020.9487,202.688,85.97,216.65,C10H22O,"4,7-dimethyl-4-octanol",19781-13-6,271.62,Yaw
CCCCCC(CO)CCC,2,5.3259964077192095,2177.7399,195.488,106.69,237.9,C10H22O,2-propyl-1-heptanol,10042-59-8,271.62,Yaw
CCCCC(CCO)C(C)C,2,5.195976407719209,2128.4778,196.239,104.53,238.59,C10H22O,3-isopropyl-1-heptanol,38514-15-7,271.62,Yaw
CC(C)CC(C)CC(C)(C)O,2,4.289896407719208,1783.9638,202.452,86.65,244.78,C10H22O,"2,4,6-trimethyl-2-heptanol",66256-47-1,271.62,Yaw
CC(C)C(C)CCC(C)(C)O,"1,2",5.119966407719209,2024.4882,202.41,86.77,217.7,C10H22O,"2,5,6-trimethyl-2-heptanol",66256-48-2,271.62,Yaw
CC(O)CC(C)CC(C)(C)C,2,4.289896407719208,1783.9638,202.452,86.65,244.78,C10H22O,"4,6,6-trimethyl-2-heptanol",51079-79-9,271.62,Yaw
CCCCC(O)(CC)C(C)C,"1,2",5.119966407719209,2024.4882,202.41,86.77,217.7,C10H22O,2-methyl-3-ethyl-3-heptanol,66719-37-7,271.62,Yaw
CCC(O)C(C)C(CC)CC,2,4.289896407719208,1783.9638,202.452,86.65,244.78,C10H22O,4-methyl-5-ethyl-3-heptanol,66731-94-0,271.62,Yaw
CCC(C)CC(O)(CC)CC,2,4.289896407719208,1783.9638,202.452,86.65,244.78,C10H22O,5-methyl-3-ethyl-3-heptanol,---,271.62,Yaw
CCCCC(C)(O)C(C)(C)C,2,4.061246407719208,1696.6151,204.356,81.17,246.84,C10H22O,"2,2,3-trimethyl-3-heptanol",29772-40-5,271.62,Yaw
CC(C)CCC(O)C(C)(C)C,2,4.1873664077192085,1744.821,203.286,84.25,245.68,C10H22O,"2,2,6-trimethyl-3-heptanol",66256-43-7,271.62,Yaw
CC(C)CCC(C)(O)C(C)C,2,4.1873664077192085,1744.821,203.286,84.25,245.68,C10H22O,"2,3,6-trimethyl-3-heptanol",58046-40-5,271.62,Yaw
CCC(C)(C)CC(C)(O)CC,"1,2",5.116546407719208,2032.9947,201.688,88.85,220.49,C10H22O,"3,5,5-trimethyl-3-heptanol",66256-50-6,271.62,Yaw
CCCC(O)(CCC)CCC,"1,2",5.119576407719208,2028.0277,202.132,87.57,218.75,C10H22O,4-propyl-4-heptanol,2198-72-3,271.62,Yaw
CCCC(O)(CCC)C(C)C,"1,2",5.170116407719208,2027.9472,203.244,84.37,213.25,C10H22O,4-isopropyl-4-heptanol,51200-82-9,271.62,Yaw
CCCC(C)(O)CC(C)(C)C,2,3.905966407719209,1637.1751,205.746,77.17,248.4,C10H22O,"2,2,4-trimethyl-4-heptanol",57233-31-5,271.62,Yaw
CCC(C)C(O)CC(C)(C)C,2,3.931716407719208,1647.0395,205.51,77.85,248.13,C10H22O,"2,2,5-trimethyl-4-heptanol",66256-42-6,271.62,Yaw
CC(C)CC(O)CC(C)(C)C,2,3.931716407719208,1647.0395,205.51,77.85,248.13,C10H22O,"2,2,6-trimethyl-4-heptanol",66256-44-8,271.62,Yaw
CCC(C)C(C)(O)CC(C)C,2,3.931716407719208,1647.0395,205.51,77.85,248.13,C10H22O,"2,4,5-trimethyl-4-heptanol",66256-46-0,271.62,Yaw
CC(C)CC(C)(O)CC(C)C,"1,2",5.121966407719208,1984.857,205.468,77.97,206.25,C10H22O,"2,4,6-trimethyl-4-heptanol",60836-07-9,271.62,Yaw
CCC(C)(C)C(O)CC(C)C,2,3.931716407719208,1647.0395,205.51,77.85,248.13,C10H22O,"3,3,6-trimethyl-4-heptanol",---,271.62,Yaw
CCCC(CO)CC(C)CC,"1,2",5.090866407719209,2070.6614,198.24,98.77,234.06,C10H22O,4-methyl-2-propyl-1-hexanol,66256-62-0,271.62,Yaw
CCC(C)CC(CO)C(C)C,"1,2",5.093216407719209,2045.8767,200.186,93.17,226.73,C10H22O,4-methyl-2-isopropyl-1-hexanol,66719-41-3,271.62,Yaw
CC(C)CCC(CO)C(C)C,"1,2",5.1828364077192095,2116.4133,196.85,102.77,236.68,C10H22O,5-methyl-2-isopropyl-1-hexanol,2051-33-4,271.62,Yaw
CCC(CO)CCC(C)(C)C,2,5.086946407719209,2087.1363,196.892,102.65,239.21,C10H22O,"5,5-dimethyl-2-ethyl-1-hexanol",---,271.62,Yaw
CCC(C)(C)C(C)C(C)(C)O,"1,2",5.492986407719208,2120.8091,203.244,84.37,205.24,C10H22O,"2,3,4,4-tetramethyl-2-hexanol",66256-66-4,271.62,Yaw
CC(O)C(C)(C)CC(C)(C)C,2,4.1873664077192085,1744.821,203.286,84.25,245.68,C10H22O,"3,3,5,5-tetramethyl-2-hexanol",66256-69-7,271.62,Yaw
CCCC(O)(C(C)C)C(C)C,"1,2",5.538226407719209,2141.5678,202.688,85.97,206.23,C10H22O,2-methyl-3-isopropyl-3-hexanol,51200-81-8,271.62,Yaw
CCC(CC)C(O)C(C)(C)C,"1,2",5.122376407719209,2003.2515,204.078,81.97,211.42,C10H22O,"2,2-dimethyl-4-ethyl-3-hexanol",66719-47-9,271.62,Yaw
CCC(C)(CC)C(O)C(C)C,2,4.088586407719209,1707.0691,204.12,81.85,246.58,C10H22O,"2,4-dimethyl-4-ethyl-3-hexanol",66719-48-0,271.62,Yaw
CCC(O)(CC)CC(C)(C)C,2,4.088586407719209,1707.0691,204.12,81.85,246.58,C10H22O,"5,5-dimethyl-3-ethyl-3-hexanol",5340-62-5,271.62,Yaw
CCC(C)C(C)(O)C(C)(C)C,"1,2",5.127616407719209,2023.0427,202.688,85.97,216.46,C10H22O,"2,2,3,4-tetramethyl-3-hexanol",66256-63-1,271.62,Yaw
CC(C)CC(C)(O)C(C)(C)C,2,6.650716407719209,2677.9327,189.253,124.63,232.49,C10H22O,"2,2,3,5-tetramethyl-3-hexanol",66256-64-2,271.62,Yaw
CCC(C)(C)C(O)C(C)(C)C,"1,2",5.245306407719209,2049.5752,203.244,84.37,211.29,C10H22O,"2,2,4,4-tetramethyl-3-hexanol",66256-65-3,277.15,Yaw
CC(C)(C)CC(O)C(C)(C)C,"1,2",5.129516407719208,1943.0845,208.804,52.0,193.62,C10H22O,"2,2,5,5-tetramethyl-3-hexanol",55073-86-4,325.15,Yaw
CCC(C)(C)C(C)(O)C(C)C,"1,2",5.133496407719209,2057.6929,200.186,93.17,225.62,C10H22O,"2,3,4,4-tetramethyl-3-hexanol",66256-67-5,271.62,Yaw
CC(C)C(C)(O)CC(C)(C)C,2,4.622166407719209,1910.5751,199.95,93.85,242.2,C10H22O,"2,3,5,5-tetramethyl-3-hexanol",5396-09-8,271.62,Yaw
CC(C)C(O)C(C)(C)C(C)C,2,4.622166407719209,1910.5751,199.95,93.85,242.2,C10H22O,"2,4,4,5-tetramethyl-3-hexanol",66256-68-6,271.62,Yaw
CCC(C)(O)C(C)(C)C(C)C,"1,2",5.118816407719208,2057.0407,199.908,93.97,227.06,C10H22O,"3,4,4,5-tetramethyl-3-hexanol",66256-39-1,271.62,Yaw
CCC(C)(O)C(C)C(C)(C)C,"1,2",5.136036407719208,2036.46,201.854,88.37,219.34,C10H22O,"3,4,5,5-tetramethyl-3-hexanol",66256-40-4,271.62,Yaw
CC(C)CC(CO)CC(C)C,"1,2",5.115686407719209,2063.4239,199.352,95.57,229.22,C10H22O,4-methyl-2-isobutyl-1-pentanol,22417-45-4,271.62,Yaw
CC(C)C(CCO)C(C)(C)C,2,3.9623464077192088,1658.7684,205.232,78.65,247.82,C10H22O,"4,4-dimethyl-3-isopropyl-1-pentanol",66719-51-5,271.62,Yaw
CC(C)C(C)(C(C)C)C(C)O,2,3.9623464077192088,1658.7684,205.232,78.65,247.82,C10H22O,"3,4-dimethyl-3-isopropyl-2-pentanol",66719-50-4,271.62,Yaw
CC(C)C(O)(C(C)C)C(C)C,"1,2",5.1193764077192085,2029.7975,201.993,87.97,219.27,C10H22O,"2,4-dimethyl-3-isopropyl-3-pentanol",51200-83-0,258.45,Yaw
CCC(O)(C(C)C)C(C)(C)C,"1,2",5.194386407719209,2038.6229,202.966,85.17,213.64,C10H22O,"2,2,4-trimethyl-3-ethyl-3-pentanol",66256-41-5,271.62,Yaw
CC(C)(C)C(C)(O)C(C)(C)C,"1,2",5.119416407719209,2029.4436,202.021,87.89,219.17,C10H22O,"2,2,3,4,4-pentamethyl-3-pentanol",5857-69-2,315.25,Yaw
CC(C)C(C)(CO)C(C)(C)C,2,4.289896407719208,1783.9638,202.452,86.65,244.78,C10H22O,"2,3-dimethyl-2-tert-butyl-1-butanol",81931-81-9,327.15,Yaw
CCC(O)(CC)CCC(C)C,2,4.536356407719208,1877.9103,200.569,92.07,242.82,C10H22O,3-ethyl-6-methyl-3-heptanol,66719-40-2,271.62,Yaw
CCCCCCCCCOC,2,5.220896407719209,2011.3781,201.854,81.37,206.97,C10H22O,1-methoxy-nonane,---,244.69,Yaw
CCCCCCCC(C)OC,2,4.423406407719209,1726.2732,206.858,66.97,211.9,C10H22O,2-methoxy-nonane,---,244.69,Yaw
CCCCCCC(CC)OC,2,4.423406407719209,1726.2732,206.858,66.97,211.9,C10H22O,3-methoxy-nonane,---,244.69,Yaw
CCCCCC(CCC)OC,2,4.423406407719209,1726.2732,206.858,66.97,211.9,C10H22O,4-methoxy-nonane,---,244.69,Yaw
CCCCC(CCCC)OC,2,4.423406407719209,1726.2732,206.858,66.97,211.9,C10H22O,5-methoxy-nonane,---,244.69,Yaw
CCCCCCCCOCC,"1,2",4.697536407719209,1835.9055,204.273,74.81,213.31,C10H22O,1-ethoxy-octane,929-61-3,285.65,Yaw
CCCCCCC(C)OCC,2,4.423406407719209,1726.2732,206.858,66.97,211.9,C10H22O,2-ethoxy-octane,---,244.69,Yaw
CCCCCC(CC)OCC,2,4.423406407719209,1726.2732,206.858,66.97,211.9,C10H22O,3-ethoxy-octane,---,244.69,Yaw
CCCCC(CCC)OCC,2,4.423406407719209,1726.2732,206.858,66.97,211.9,C10H22O,4-ethoxy-octane,---,244.69,Yaw
CCCCCCCOCCC,2,4.844786407719209,1877.1185,204.051,75.05,209.07,C10H22O,1-propoxy-heptane,72066-65-0,244.69,Yaw
CCCCCC(C)OCCC,2,4.4664364077192085,1741.7016,206.553,67.85,211.58,C10H22O,2-propoxy-heptane,---,244.69,Yaw
CCCCC(CC)OCCC,2,4.4664364077192085,1741.7016,206.553,67.85,211.58,C10H22O,3-propoxy-heptane,---,244.69,Yaw
CCCOC(CCC)CCC,2,4.4664364077192085,1741.7016,206.553,67.85,211.58,C10H22O,4-propoxy-heptane,---,244.69,Yaw
CCCCCCCOC(C)C,2,4.283306407719208,1676.0062,207.887,64.01,212.98,C10H22O,1-isopropoxy-heptane,---,244.69,Yaw
CCCCCC(C)OC(C)C,2,4.174716407719209,1636.9978,208.721,61.61,213.87,C10H22O,2-isopropoxy-heptane,---,244.69,Yaw
CCCCC(CC)OC(C)C,2,4.174716407719209,1636.9978,208.721,61.61,213.87,C10H22O,3-isopropoxy-heptane,---,244.69,Yaw
CCCC(CCC)OC(C)C,2,4.174716407719209,1636.9978,208.721,61.61,213.87,C10H22O,4-isopropoxy-heptane,---,244.69,Yaw
CCCCCOCCCCC,"1,2",4.674716407719209,1831.0764,204.148,75.17,214.51,C10H22O,dipentyl ether,693-65-2,203.72,Yaw
CC(C)CCOCCC(C)C,"1,2",4.700816407719208,1789.4076,208.109,63.77,198.59,C10H22O,diisopentyl ether,544-01-4,244.69,Yaw
CCCCCCCCC(O)CO,3,5.896736407719208,2602.3244,178.224,156.37,286.83,C10H22O2,"1,2-decanediol",1119-86-4,322.15,Yaw
CCCCCCCC[C@H](O)CO,3,3.9635464077192086,1803.9219,192.036,116.62,300.5,C10H22O2,"(S)-1,2-decanediol",84276-14-2,333.15,Yaw
CCCCCCCC(O)CCO,3,3.9635464077192086,1803.9219,192.036,116.62,300.5,C10H22O2,"1,3-decanediol",6071-27-8,320.51,Yaw
CCCCCCC(O)CCCO,3,8.14488640771921,3522.0118,169.328,181.97,279.69,C10H22O2,"1,4-decanediol",37810-94-9,301.15,Yaw
OCCCCCCCCCCO,3,7.216436407719209,3142.8997,172.428,173.05,282.05,C10H22O2,"1,10-decanediol",112-47-0,345.7,Yaw
CC(O)CCCCCCC(C)O,3,3.9635464077192086,1803.9219,192.036,116.62,300.5,C10H22O2,"2,9-decanediol",14021-92-2,306.15,Yaw
CC(CCO)CCCC(C)(C)O,"1,2",5.683736407719209,2471.8259,182.394,144.37,276.82,C10H22O2,"3,7-dimethyl-1,7-octanediol",107-74-4,320.51,Yaw