smiles,code,A [log10(atm)],B [C],C [C],TMIN [C],TMAX [C],FORMULA,NAME,CAS No,mp [K],mp_type
CC[Se]C(F)(F)C(F)(F)F,3,5.329286407719209,1815.0,273.15,-32.15,87.81,C4H5F5Se,ethyl(pentafluoro-ethyl) selenide,6123-57-5,215.39119120596163,ML
C=CC(=C)I,3,4.567166407719209,1559.7552,224.928,16.97,140.68,C4H5I,"2-iodo-1,3-butadiene",19221-28-4,200.18007640066696,ML
C=C=CCI,3,5.546306407719209,1866.3937,219.924,31.37,135.9,C4H5I,"4-iodo-1,2-butadiene",67885-08-9,198.63473163270908,ML
CC=CC#N,2,5.175276407719208,1807.861,240.409,15.8,146.73,C4H5N,trans-crotonitrile,627-26-9,222.0,Yaw
C=C(C)C#N,"1,2",4.453526407719209,1526.148,252.833,-35.8,115.29,C4H5N,methacrylonitrile,126-98-7,237.35,Yaw
C=CCC#N,"1,2",4.502946407719208,1612.1365,238.968,13.57,144.7,C4H5N,vinylacetonitrile,109-75-1,186.15,Yaw
c1cc[nH]c1,"1,2",4.322636407719209,1451.5978,205.963,28.04,366.6,C4H5N,pyrrole,109-97-7,249.74,Yaw
[C-]#[N+]CC=C,2,4.160416407719208,1405.1325,228.82,3.77,135.26,C4H5N,3-isocyano-1-propene,2835-21-4,207.75574961158915,ML
COC(=O)CC#N,"1,2",4.632536407719209,1890.3051,202.5,87.72,233.91,C4H5NO2,methyl cyanoacetate,105-34-0,260.08,Yaw
C=CCN=C=S,3,3.775096407719209,1304.5497,193.568,37.08,181.94,C4H5NS,allyl isothiocyanate,57-06-7,193.15,Yaw
Cc1nccs1,3,4.171186407719208,1407.05,209.326,23.17,154.24,C4H5NS,2-methylthiazole,3581-87-1,248.42,Yaw
C1=CCC1,"1,2",4.3273364077192085,1108.0692,254.012,-77.0,21.93,C4H6,cyclobutene,822-35-5,153.76,Yaw
CC#CC,"1,2",3.9324364077192087,905.3782,203.254,-47.51,46.07,C4H6,dimethylacetylene,503-17-3,240.91,Yaw
C#CCC,"1,2",4.290586407719209,1070.6177,241.457,-67.98,26.9,C4H6,ethylacetylene,107-00-6,147.43,Yaw
C=C=CC,"1,2",4.184006407719209,1097.2562,251.4,-70.48,31.18,C4H6,"1,2-butadiene",590-19-2,136.95,Yaw
C=CC=C,"1,2",4.149276407719209,1000.0303,245.563,-79.72,152.22,C4H6,"butadiene (1,3 butadiene)",106-99-0,164.25,Yaw
CCC=C(Br)Br,2,4.687936407719208,1737.694,208.61,55.93,199.0,C4H6Br2,"1,1-dibromo-1-butene",73383-24-1,326.55,Yaw
CCC(Br)=CBr,2,3.834796407719209,1443.5279,214.364,38.19,194.13,C4H6Br2,"1,2-dibromo-1-butene",55030-56-3,326.55,Yaw
CC(Br)=CCBr,2,4.5699464077192085,1697.3914,209.36,53.77,196.18,C4H6Br2,"1,3-dibromo-2-butene",64930-16-1,326.55,Yaw
C=CC(Br)CBr,2,4.687936407719208,1737.694,208.61,55.93,199.0,C4H6Br2,"3,4-dibromo-1-butene",10463-48-6,326.55,Yaw
BrCC=CCBr,"1,2",4.293166407719209,1737.3597,199.63,81.77,235.57,C4H6Br2,"trans-1,4-dibromo-2-butene",821-06-7,326.55,Yaw
CC(=CBr)CBr,2,4.687936407719208,1737.694,208.61,55.93,199.0,C4H6Br2,"1,3-dibromo-2-methyl-1-propene",35911-17-2,326.55,Yaw
BrC(Br)CCC(Br)Br,3,4.736126407719208,2098.591,183.784,133.37,289.39,C4H6Br4,"1,1,4,4-tetrabromobutane",116779-77-2,330.5,Yaw
CC(Br)C(Br)(Br)CBr,3,4.736126407719208,2098.591,183.784,133.37,289.39,C4H6Br4,"1,2,2,3-tetrabromobutane",116779-78-3,272.15,Yaw
BrCC(Br)C(Br)CBr,3,4.736126407719208,2098.591,183.784,133.37,289.39,C4H6Br4,"1,2,3,4-tetrabromobutane",1529-68-6,388.2,Yaw
O=C(CF)OCCCl,3,7.490776407719208,2945.0,273.15,41.1,136.46,C4H6ClFO2,2-chloroethyl fluoroacetate,1537-62-8,265.1619954637488,ML
CC(Cl)=CCCl,3,5.134466407719209,1737.6439,220.244,27.45,139.26,C4H6Cl2,"1,3-dichloro-trans-2-butene",7415-31-8,246.13,Yaw
ClCC=CCCl,"1,2",4.606196407719208,1686.8764,213.669,46.37,178.16,C4H6Cl2,"1,4-dichloro-cis-2-butene",1476-11-5,223.15,Yaw
C=CC(Cl)CCl,"1,2",4.233346407719209,1469.7582,224.136,16.25,149.63,C4H6Cl2,"3,4-dichloro-1-butene",760-23-6,212.0,Yaw
C=C(CCl)CCl,"1,2",4.597696407719209,1635.6301,217.7,34.77,162.97,C4H6Cl2,3-chloro-2-(chloromethyl)-1-propene,1871-57-4,259.15,Yaw
CC(Cl)C=CCl,3,4.925606407719209,1672.231,221.314,24.37,140.28,C4H6Cl2,"1,3-dichloro-1-butene",52497-07-1,246.13,Yaw
C=C(Cl)C(C)Cl,3,4.311586407719209,1479.3528,224.928,13.97,143.94,C4H6Cl2,"2,3-dichloro-1-butene",7013-11-8,246.13,Yaw
CC=CC(Cl)Cl,3,4.978526407719209,1688.8132,221.036,25.17,140.01,C4H6Cl2,"1,1-dichloro-2-butene",56800-09-0,246.13,Yaw
CC=C(Cl)CCl,3,5.228386407719208,1767.0298,219.785,28.77,138.83,C4H6Cl2,"1,2-dichloro-2-butene",13602-13-6,246.13,Yaw
CC(Cl)=C(C)Cl,3,4.951956407719209,1680.4873,221.175,24.77,140.15,C4H6Cl2,"cis-2,3-dichloro-2-butene",1587-26-4,246.13,Yaw
CC(C)=C(Cl)Cl,3,4.166656407719208,1433.6822,225.901,11.17,144.98,C4H6Cl2,"1,1-dichloro-2-methyl-1-propene",6065-93-6,230.15,Yaw
C=C(C)C(Cl)Cl,3,4.146576407719208,1427.3471,226.04,10.77,145.13,C4H6Cl2,"3,3-dichloro-2-methyl-1-propene",22227-75-4,246.13,Yaw
CCC=C(Cl)Cl,3,5.145926407719209,1743.1999,220.57,27.51,139.23,C4H6Cl2,dichlorobutene,11069-19-5,246.13,Yaw
O=C(CCl)OCCCl,3,4.6359164077192085,2154.0897,246.22,45.85,250.7,C4H6Cl2O2,2-chloroethyl chloroacetate,3848-12-2,284.09892506561613,ML
CCOC(=O)C(Cl)Cl,3,3.452796407719209,1703.5796,274.958,2.6,265.56,C4H6Cl2O2,ethyl dichloroacetate,535-15-9,252.28694478213083,ML
CCC(Cl)C(Cl)(Cl)Cl,2,2.7813964077192086,1139.1738,218.534,25.81,240.74,C4H6Cl4,"1,1,1,2-tetrachlorobutane",39966-95-5,301.32,Yaw
CC(Cl)C(Cl)(Cl)CCl,2,3.9882264077192087,1581.3429,205.468,63.97,223.41,C4H6Cl4,"1,2,2,3-tetrachlorobutane",79630-70-9,225.15,Yaw
CC(Cl)(Cl)C(Cl)CCl,2,4.049336407719209,1608.2469,206.129,65.07,222.93,C4H6Cl4,"1,2,3,3-tetrachlorobutane",13138-51-7,301.32,Yaw
CC(Cl)(CCl)C(Cl)Cl,"1,2",4.286136407719209,1688.9765,203.105,70.77,220.72,C4H6Cl4,"1,1,2,3-tetrachloro-2-methylpropane",18963-01-4,227.15,Yaw
ClCC(Cl)(CCl)CCl,"1,2",4.435156407719209,1797.3761,197.406,87.17,241.57,C4H6Cl4,"1,2,3-trichloro-2-(chloromethyl)propane",18963-00-3,301.32,Yaw
ClCC(Cl)C(Cl)CCl,2,4.049336407719209,1608.2469,206.129,65.07,222.93,C4H6Cl4,"1,2,3,4-tetrachlorobutane",3405-32-1,301.32,Yaw
N#CCCCF,3,5.469586407719209,2362.0,273.15,48.19,183.84,C4H6FN,4-fluorobutyronitrile,407-83-0,196.20519782922858,ML
O=C(CF)OCCF,3,6.832286407719209,2876.0,273.15,56.93,167.19,C4H6F2O2,b-fluoroethyl fluoroacetate,459-99-4,238.21647692852994,ML
CC(I)CC(F)(F)F,3,4.508186407719209,1690.0,273.15,-8.63,128.55,C4H6F3I,"1,1,1-trifluoro-3-iodobutane",540-87-4,217.3671972835115,ML
CC(CI)C(F)(F)F,3,4.295186407719209,1586.0,273.15,-16.35,123.93,C4H6F3I,"1,1,1-trifluoro-3-iodo-2-methylpropane",26653-47-4,203.36490624077774,ML
CC=CC=O,"1,2",4.522706407719209,1490.2413,227.152,5.57,128.04,C4H6O,crotonaldehyde,123-73-9,198.0,Yaw
C/C=C\C=O,"1,2",4.356126407719208,1444.9645,227.708,3.97,128.62,C4H6O,cis-crotonaldehyde,15798-64-8,199.15,Yaw
C=CCC=O,2,6.019626407719208,1809.7412,229.098,-0.03,120.72,C4H6O,3-butenal,7319-38-2,196.15,Yaw
C=C(C)C=O,"1,2",4.259186407719208,1303.3706,237.564,-25.29,92.46,C4H6O,methacrolein,78-85-3,192.15,Yaw
C1=CCOC1,"1,2",4.275656407719208,1271.4358,231.516,-25.0,88.37,C4H6O,"2,5-dihydrofuran",1708-29-8,189.59359677377924,ML
C=COC=C,"1,2",4.314036407719208,1149.1417,238.323,-52.82,48.37,C4H6O,divinyl ether,109-93-3,172.05,Yaw
C=C=CCO,2,12.062656407719208,3520.8847,220.341,32.17,111.18,C4H6O,"2,3-butadien-1-ol",18913-31-0,254.86338660076615,ML
C=CC(C)=O,"1,2",4.356716407719208,1403.8453,240.775,-15.71,105.37,C4H6O,3-buten-2-one,78-94-4,179.61431311118156,ML
CC#CCO,"1,2",5.142116407719209,1845.9452,216.435,46.0,165.0,C4H6O,2-butyn-1-ol,764-01-2,272.05,Yaw
C#CCCO,"1,2",5.1494764077192094,1793.9325,220.522,35.0,149.0,C4H6O,3-butyn-1-ol,927-74-2,209.55,Yaw
C#CC(C)O,"1,2",5.160256407719208,1723.1762,226.082,19.0,129.0,C4H6O,3-butyn-2-ol,2028-63-9,271.65,Yaw
O=C1CCC1,"1,2",4.350636407719208,1410.9321,225.255,1.17,123.16,C4H6O,cyclobutanone,1191-95-3,222.25,Yaw
CC(C)=C=O,2,5.137526407719209,1576.8008,230.376,-5.71,116.66,C4H6O,2-methyl-1-propen-1-one,598-26-5,204.3260645371911,ML
O=C1CCCS1,3,6.568256407719209,2854.8855,273.15,64.74,182.38,C4H6OS,dihydro-2(3H)-thiophenone,1003-10-7,267.6872497379171,ML
O=C1CCSC1,"1,2",5.655886407719208,2534.9689,273.15,63.2,200.25,C4H6OS,"4,5-dihydro-3(2H)-thiophenone",1003-04-9,325.6059929248647,ML
CC=CC(=O)O,"1,2",4.843156407719208,1783.5774,198.917,66.34,197.13,C4H6O2,cis-2-butenoic acid,503-64-0,288.65,Yaw
C=CCC(=O)O,2,3.966296407719208,1282.8443,153.724,65.67,196.28,C4H6O2,vinylacetic acid,625-38-7,238.15,Yaw
C=C(C)C(=O)O,"1,2",4.3644964077192085,1518.5097,185.373,57.77,188.32,C4H6O2,methacrylic acid,79-41-4,288.15,Yaw
O=C(O)C1CC1,3,4.803376407719209,1864.6224,205.19,73.77,208.95,C4H6O2,cyclopropanecarboxylic acid,1759-53-1,291.65,Yaw
OCC#CCO,"1,2",5.647106407719209,2283.0965,166.445,136.84,260.81,C4H6O2,"2-butyne-1,4-diol",110-65-6,331.0,Yaw
O=C1CCCO1,"1,2",5.201526407719209,2651.1757,305.142,69.19,235.86,C4H6O2,gamma-butyrolactone,96-48-0,229.78,Yaw
C=CC(=O)OC,"1,2",4.398856407719209,1384.2615,234.137,-13.7,103.67,C4H6O2,methyl acrylate,96-33-3,196.32,Yaw
C=COC(C)=O,"1,2",4.461306407719209,1393.3201,239.762,-20.07,245.98,C4H6O2,vinyl acetate,108-05-4,180.35,Yaw
C=CCOC=O,2,5.602716407719209,1689.5818,232.824,-7.05,105.33,C4H6O2,allyl formate,1838-59-1,188.34,Yaw
CC(=O)C(C)=O,"1,2",4.601416407719209,1470.8452,231.6,-4.7,110.43,C4H6O2,"2,3-butanedione",431-03-8,271.95,Yaw
CC(=O)SC(C)=O,3,6.809146407719208,2827.875,273.15,51.85,161.37,C4H6O2S,diacetylsulfide,3232-39-1,209.3528289007194,ML
CC(=O)OC(C)=O,"1,2",5.928116407719209,2397.2213,264.961,42.02,292.85,C4H6O3,acetic anhydride,108-24-7,200.15,Yaw
CC1COC(=O)O1,"1,2",5.672006407719209,3408.2685,359.193,92.06,275.38,C4H6O3,propylene carbonate,108-32-7,223.95,Yaw
COC(=O)C(=O)OC,"1,2",5.425956407719209,2293.6407,258.166,50.5,189.38,C4H6O4,dimethyl oxalate,553-90-2,327.95,Yaw
CC(C(=O)O)C(=O)O,3,8.596856407719208,3786.1259,167.702,193.65,288.69,C4H6O4,methylmalonic acid,516-05-2,408.15,Yaw
CCC=CBr,2,4.540116407719209,1453.7291,232.115,-5.71,110.82,C4H7Br,1-bromo-1-butene,---,158.08,Yaw
CC/C=C\Br,"1,2",3.677356407719208,1023.996,185.61,-1.38,117.68,C4H7Br,cis-1-bromo-1-butene,31849-78-2,158.08,Yaw
CC/C=C/Br,"1,2",4.515596407719209,1561.216,250.989,-6.91,119.44,C4H7Br,trans-1-bromo-1-butene,32620-08-9,172.85,Yaw
C=C(Br)CC,"1,2",4.011646407719208,1282.4386,231.629,-13.99,113.98,C4H7Br,2-bromo-1-butene,23074-36-4,139.75,Yaw
C=CC(C)Br,2,4.786596407719209,1280.8275,179.505,12.6,128.73,C4H7Br,3-bromo-1-butene,22037-73-6,158.08,Yaw
C=CCCBr,"1,2",3.980886407719209,1118.1943,182.341,8.42,121.87,C4H7Br,4-bromo-1-butene,5162-44-7,158.08,Yaw
CC=CCBr,"1,2",4.6533964077192085,1541.9636,227.013,8.97,127.47,C4H7Br,1-bromo-2-butene,4784-77-4,158.08,Yaw
C/C=C\CBr,2,4.781776407719208,1283.7178,180.379,12.3,127.45,C4H7Br,1-bromo-cis-2-butene,39616-19-8,158.08,Yaw
CC=C(C)Br,2,4.658086407719209,1488.4589,231.461,-3.83,110.71,C4H7Br,2-bromo-2-butene,13294-71-8,158.08,Yaw
C/C=C(\C)Br,"1,2",4.858786407719209,1609.9107,245.69,-6.82,119.68,C4H7Br,2-bromo-trans-2-butene,3017-71-8,157.75,Yaw
CC(C)=CBr,"1,2",4.098396407719209,1107.4503,183.366,1.85,113.9,C4H7Br,1-bromo-2-methyl-1-propene,3017-69-4,158.08,Yaw
C=C(C)CBr,2,4.248636407719209,1150.1593,182.631,5.01,118.08,C4H7Br,3-bromo-2-methyl-1-propene,1458-98-6,158.08,Yaw
CCCC(Br)(Br)Br,2,4.2997464077192085,1786.6548,197.406,91.67,249.4,C4H7Br3,"1,1,1-tribromobutane",62127-62-2,256.36,Yaw
CCC(Br)C(Br)Br,"1,2",4.5574164077192085,1878.6152,195.961,95.83,245.4,C4H7Br3,"1,1,2-tribromobutane",3675-68-1,256.36,Yaw
CC(Br)CC(Br)Br,2,4.431236407719209,1835.9063,196.191,94.67,248.32,C4H7Br3,"1,1,3-tribromobutane",---,256.36,Yaw
BrCCCC(Br)Br,2,4.447416407719208,1842.0659,196.069,95.02,248.19,C4H7Br3,"1,1,4-tribromobutane",---,256.36,Yaw
CCC(Br)(Br)CBr,"1,2",4.556006407719209,1870.1407,196.628,93.91,242.89,C4H7Br3,"1,2,2-tribromobutane",3675-69-2,256.36,Yaw
CC(Br)C(Br)CBr,2,4.633456407719208,1913.7259,194.904,98.87,249.32,C4H7Br3,"1,2,3-tribromobutane",632-05-3,254.15,Yaw
BrCCC(Br)CBr,2,4.4432564077192085,1841.3423,196.294,94.87,248.24,C4H7Br3,"1,2,4-tribromobutane",38300-67-3,255.15,Yaw
CC(Br)(Br)CCBr,2,3.519026407719209,1487.6784,204.634,70.87,257.67,C4H7Br3,"1,3,3-tribromobutane",62127-46-2,256.36,Yaw
CC(Br)C(C)(Br)Br,2,4.130276407719209,1721.9745,198.796,87.67,250.89,C4H7Br3,"2,3,3-tribromobutane",62127-47-3,275.0,Yaw
CC(C)C(Br)(Br)Br,2,4.330746407719209,1797.6325,196.967,92.43,249.13,C4H7Br3,"1,1,1-tribromo-2-methylpropane",---,256.36,Yaw
CC(C)(Br)C(Br)Br,2,5.0549064077192085,2073.7407,192.124,106.87,259.79,C4H7Br3,"1,1,2-tribromo-2-methylpropane",15331-16-5,256.36,Yaw
CC(CBr)C(Br)Br,2,4.431236407719209,1835.9063,196.191,94.67,248.32,C4H7Br3,"1,1,3-tribromo-2-methylpropane",---,256.36,Yaw
CC(Br)(CBr)CBr,2,4.633456407719208,1913.7259,194.904,98.87,249.32,C4H7Br3,"1,2,3-tribromo-2-methylpropane",631-28-7,256.36,Yaw
BrCC(CBr)CBr,2,4.633456407719208,1913.7259,194.904,98.87,249.32,C4H7Br3,"1,3-dibromo-2-(bromomethyl)propane",62127-48-4,241.15,Yaw
CCC=CCl,2,4.286586407719208,1318.1557,237.8,-24.07,92.93,C4H7Cl,1-chloro-1-butene,4461-42-1,177.15,Yaw
CC/C=C\Cl,"1,2",3.797116407719209,969.9535,191.895,-21.07,85.55,C4H7Cl,cis-1-chloro-1-butene,7611-86-1,177.15,Yaw
CC/C=C/Cl,"1,2",3.7995064077192087,982.5233,190.542,-17.57,90.37,C4H7Cl,trans-1-chloro-1-butene,7611-87-2,177.15,Yaw
C=C(Cl)CC,"1,2",3.767606407719208,947.7939,193.014,-25.22,80.4,C4H7Cl,2-chloro-1-butene,2211-70-3,177.15,Yaw
C=CC(C)Cl,"1,2",4.227306407719209,1300.255,243.735,-30.86,87.63,C4H7Cl,3-chloro-1-butene,563-52-0,177.15,Yaw
C=CCCCl,"1,2",3.817276407719208,1004.2167,189.222,-12.98,96.58,C4H7Cl,4-chloro-1-butene,927-73-1,177.15,Yaw
CC=CCCl,"1,2",4.443236407719208,1414.5155,234.102,-10.43,107.39,C4H7Cl,1-chloro-2-butene,591-97-9,208.25,Yaw
CC=C(C)Cl,"1,2",4.694506407719208,1420.9475,238.133,-22.03,85.29,C4H7Cl,2-chloro-2-butene,4461-41-0,177.15,Yaw
CC(C)=CCl,"1,2",3.751916407719208,967.2831,189.76,-18.03,90.61,C4H7Cl,1-chloro-2-methyl-1-propene,513-37-1,177.15,Yaw
C=C(C)CCl,"1,2",4.104986407719209,1216.5178,224.801,-21.57,95.88,C4H7Cl,3-chloro-2-methyl-1-propene,563-47-3,177.15,Yaw
CCC(=O)CCl,3,4.104836407719208,1091.6716,147.58,33.85,139.41,C4H7ClO,1-chloro-2-butanone,616-27-3,259.91487196712313,ML
CC(=O)C(C)Cl,3,4.993306407719208,1954.9675,273.15,11.25,143.48,C4H7ClO,3-chloro-2-butanone,4091-39-8,232.77978675670204,ML
CC(Cl)=CCO,3,7.893876407719208,2224.4742,163.43,64.14,129.54,C4H7ClO,3-chloro-2-buten-1-ol,40605-42-3,230.25,Yaw
CCOC(=O)CCl,"1,2",4.439496407719209,1614.3033,219.423,35.99,170.65,C4H7ClO2,ethyl chloroacetate,105-39-5,247.15,Yaw
CC(Cl)=CCS,3,7.676106407719208,3745.252,353.988,37.9,153.84,C4H7ClS,3-chloro-2-butene-1-thiol,900002-51-9,224.62699377780618,ML
COP(=O)(OC)OC=C(Cl)Cl,3,7.369886407719209,3581.3,274.35,112.79,232.28,C4H7Cl2O4P,dichlorvos,62-73-7,290.2983823936361,ML
CCCC(Cl)(Cl)Cl,2,3.866736407719209,1430.4629,218.812,-6.0,182.36,C4H7Cl3,"1,1,1-trichlorobutane",13279-85-1,267.15,Yaw
CCC(Cl)C(Cl)Cl,2,4.483056407719209,1642.4521,215.24,42.85,177.5,C4H7Cl3,"1,1,2-trichlorobutane",---,267.15,Yaw
CC(Cl)CC(Cl)Cl,"1,2",4.654376407719209,1691.3102,213.53,45.27,179.16,C4H7Cl3,"1,1,3-trichlorobutane",13279-87-3,267.15,Yaw
ClCCCC(Cl)Cl,2,4.483056407719209,1642.4521,215.24,42.85,177.5,C4H7Cl3,"1,1,4-trichlorobutane",66250-03-1,267.15,Yaw
CCC(Cl)(Cl)CCl,2,5.473156407719209,1974.7615,209.68,58.85,192.76,C4H7Cl3,"1,2,2-trichlorobutane",---,267.15,Yaw
CC(Cl)C(Cl)CCl,"1,2",4.527496407719209,1701.9585,209.916,55.67,192.77,C4H7Cl3,"1,2,3-trichlorobutane",18338-40-4,267.15,Yaw
ClCCC(Cl)CCl,2,5.473156407719209,1974.7615,209.68,58.85,192.76,C4H7Cl3,"1,2,4-trichlorobutane",1790-22-3,267.15,Yaw
CC(Cl)C(C)(Cl)Cl,"1,2",4.553966407719209,1631.7343,216.31,37.27,168.69,C4H7Cl3,"2,2,3-trichlorobutane",10403-60-8,267.15,Yaw
CC(C)C(Cl)(Cl)Cl,2,4.279626407719209,1573.8693,216.63,38.85,178.95,C4H7Cl3,"1,1,1-trichloro-2-methylpropane",---,267.15,Yaw
CC(C)(Cl)C(Cl)Cl,2,4.246546407719209,1558.576,215.893,38.47,179.13,C4H7Cl3,"1,1,2-trichloro-2-methylpropane",29559-52-2,267.15,Yaw
CC(CCl)C(Cl)Cl,2,4.279626407719209,1573.8693,216.63,38.85,178.95,C4H7Cl3,"1,1,3-trichloro-2-methylpropane",62108-65-0,267.15,Yaw
CC(Cl)(CCl)CCl,"1,2",4.609976407719208,1717.0885,210.472,54.07,190.68,C4H7Cl3,"1,2,3-trichloro-2-methylpropane",1871-58-5,267.15,Yaw
ClCc1c(Cl)cccc1Cl,2,3.8382164077192087,1424.5883,220.03,29.07,182.72,C4H7Cl3,"1,3-dichloro-2-(chloromethyl)-propane",2014-83-7,310.65,Yaw
CCC=CF,2,4.670706407719209,1279.0101,249.253,-54.03,43.45,C4H7F,1-fluoro-1-butene,---,137.49938972041932,ML
CC/C=C\F,2,4.670706407719209,1279.0101,249.253,-54.03,43.45,C4H7F,cis-1-fluoro-1-butene,66675-34-1,134.17399212181843,ML
CC/C=C/F,2,4.670706407719209,1279.0101,249.253,-54.03,43.45,C4H7F,trans-1-fluoro-1-butene,66675-35-2,139.40910862023978,ML
C=C(F)CC,2,4.712646407719209,1290.4937,249.253,-53.53,43.27,C4H7F,2-fluoro-1-butene,430-44-4,136.29749348259574,ML
C=CC(C)F,2,4.670706407719209,1279.0101,249.253,-54.03,43.45,C4H7F,3-fluoro-1-butene,---,135.8486914932265,ML
C=CCCF,2,4.670706407719209,1279.0101,249.253,-54.03,43.45,C4H7F,4-fluoro-1-butene,---,133.96299051153358,ML
CC=CCF,2,4.670706407719209,1279.0101,249.253,-54.03,43.45,C4H7F,1-fluoro-2-butene,---,141.24840442781033,ML
C/C=C\CF,2,4.670706407719209,1279.0101,249.253,-54.03,43.45,C4H7F,cis-1-fluoro-2-butene,---,131.49826202820535,ML
C/C=C/CF,2,4.670706407719209,1279.0101,249.253,-54.03,43.45,C4H7F,trans-1-fluoro-2-butene,---,138.77358611479124,ML
CC=C(C)F,2,4.670706407719209,1279.0101,249.253,-54.03,43.45,C4H7F,2-fluoro-2-butene,---,135.81180796142004,ML
CC(C)=CF,2,4.824676407719209,1317.8187,248.558,-52.03,45.96,C4H7F,1-fluoro-2-methyl-1-propene,---,142.29036851828053,ML
C=C(C)CF,2,4.824676407719209,1317.8187,248.558,-52.03,45.96,C4H7F,3-fluoro-2-methyl-1-propene,---,137.63425314914184,ML
CCOC(=O)CF,3,5.5675964077192095,2188.9,273.15,-0.15,142.47,C4H7FO2,ethyl fluoroacetate,459-72-3,214.7033823846259,ML
CCCC(F)(F)F,"1,2",4.266866407719209,1080.7554,236.55,-60.75,35.97,C4H7F3,"1,1,1-trifluorobutane",460-34-4,158.35,Yaw
CCC(F)C(F)F,3,3.430526407719209,1004.4161,251.978,-62.87,68.97,C4H7F3,"1,1,2-trifluorobutane",---,158.35,Yaw
CC(F)CC(F)F,3,3.430526407719209,1004.4161,251.978,-62.87,68.97,C4H7F3,"1,1,3-trifluorobutane",---,158.35,Yaw
FCCCC(F)F,3,3.4463964077192086,1008.6403,251.855,-62.52,68.82,C4H7F3,"1,1,4-trifluorobutane",---,158.35,Yaw
CCC(F)(F)CF,3,3.3475764077192087,982.3152,252.631,-64.75,69.8,C4H7F3,"1,2,2-trifluorobutane",---,158.35,Yaw
CC(F)C(F)CF,3,3.430526407719209,1004.4161,251.978,-62.87,68.97,C4H7F3,"1,2,3-trifluorobutane",---,158.35,Yaw
FCCC(F)CF,3,3.4463964077192086,1008.6403,251.855,-62.52,68.82,C4H7F3,"1,2,4-trifluorobutane",---,158.35,Yaw
CC(F)(F)CCF,3,3.3475764077192087,982.3152,252.631,-64.75,69.8,C4H7F3,"1,3,3-trifluorobutane",---,158.35,Yaw
CC(F)C(C)(F)F,3,3.3323764077192086,978.2612,252.753,-65.1,69.96,C4H7F3,"2,3,3-trifluorobutane",---,158.35,Yaw
CC(C)C(F)(F)F,3,3.3323764077192086,978.2612,252.753,-65.1,69.96,C4H7F3,"1,1,1-trifluoro-2-methylpropane",---,158.35,Yaw
CC(C)(F)C(F)F,3,3.3323764077192086,978.2612,252.753,-65.1,69.96,C4H7F3,"1,1,2-trifluoro-2-methylpropane",---,158.35,Yaw
CC(CF)C(F)F,3,3.430526407719209,1004.4161,251.978,-62.87,68.97,C4H7F3,"1,1,3-trifluoro-2-methylpropane",---,158.35,Yaw
FCC(CF)CF,3,3.4463964077192086,1008.6403,251.855,-62.52,68.82,C4H7F3,"1,3-difluoro-2-(fluoromethyl)-propane",---,158.35,Yaw
CCC=CI,2,4.774576407719208,1601.3109,225.618,14.99,132.33,C4H7I,1-iodo-1-butene,---,185.33471012327797,ML
CC/C=C\I,2,4.774576407719208,1601.3109,225.618,14.99,132.33,C4H7I,cis-1-iodo-1-butene,54068-75-6,178.46194396492965,ML
CC/C=C/I,2,4.774576407719208,1601.3109,225.618,14.99,132.33,C4H7I,trans-1-iodo-1-butene,62154-92-1,183.86589315686672,ML
C=C(I)CC,2,4.774576407719208,1601.3109,225.618,14.99,132.33,C4H7I,2-iodo-1-butene,24308-61-0,183.0028246614133,ML
C=CC(C)I,2,4.774576407719208,1601.3109,225.618,14.99,132.33,C4H7I,3-iodo-1-butene,62154-74-9,188.9456834790163,ML
C=CCCI,2,4.774576407719208,1601.3109,225.618,14.99,132.33,C4H7I,4-iodo-1-butene,7766-51-0,183.5326804579132,ML
CC=CCI,2,6.180076407719209,2034.0724,219.368,32.97,155.55,C4H7I,1-iodo-2-butene,627-24-7,195.35601610777766,ML
C/C=C\CI,2,6.180076407719209,2034.0724,219.368,32.97,155.55,C4H7I,1-iodo-cis-2-butene,53121-23-6,189.7401053030477,ML
C/C=C/CI,2,6.180076407719209,2034.0724,219.368,32.97,155.55,C4H7I,1-iodo-trans-2-butene,38169-04-9,187.16852489397434,ML
CC=C(C)I,2,5.062866407719208,1690.3567,224.108,19.33,137.7,C4H7I,2-iodo-2-butene,---,194.67697952747287,ML