smiles,code,A [log10(atm)],B [C],C [C],TMIN [C],TMAX [C],FORMULA,NAME,CAS No,mp [K],mp_type
CC(C)=CI,2,5.062866407719208,1690.3567,224.108,19.33,137.7,C4H7I,1-iodo-2-methyl-1-propene,20687-01-8,198.8040493300999,ML
C=C(C)CI,2,4.672486407719209,1569.7362,226.188,13.35,132.9,C4H7I,3-iodo-2-methyl-1-propene,3756-30-7,190.9768529733659,ML
CCOC(=O)CI,3,6.022336407719209,2723.0,273.15,71.4,202.79,C4H7IO2,ethyl iodoacetate,623-48-3,265.00776477766084,ML
CCCC(I)(I)I,2,9.790956407719207,4107.0783,174.343,177.54,258.44,C4H7I3,"1,1,1-triiodobutane",---,307.8866844218935,ML
CCC(I)C(I)I,2,10.10616640771921,4232.6994,173.69,179.42,257.99,C4H7I3,"1,1,2-triiodobutane",---,321.49495224877234,ML
CC(I)CC(I)I,2,10.10616640771921,4232.6994,173.69,179.42,257.99,C4H7I3,"1,1,3-triiodobutane",---,314.8850471274036,ML
ICCCC(I)I,2,10.167196407719208,4257.018,173.568,179.77,257.91,C4H7I3,"1,1,4-triiodobutane",---,324.32507430847295,ML
CCC(I)(I)CI,2,9.790956407719207,4107.0783,174.343,177.54,258.44,C4H7I3,"1,2,2-triiodobutane",---,319.27392476421187,ML
CC(I)C(I)CI,2,10.10616640771921,4232.6994,173.69,179.42,257.99,C4H7I3,"1,2,3-triiodobutane",---,320.8541099376568,ML
ICCC(I)CI,2,10.167196407719208,4257.018,173.568,179.77,257.91,C4H7I3,"1,2,4-triiodobutane",---,332.3204357669587,ML
CC(I)(I)CCI,2,9.790956407719207,4107.0783,174.343,177.54,258.44,C4H7I3,"1,3,3-triiodobutane",---,316.27326880258505,ML
CC(I)C(C)(I)I,2,9.733876407719208,4084.3254,174.466,177.19,258.52,C4H7I3,"2,2,3-triiodobutane",---,323.93190965584574,ML
CC(C)C(I)(I)I,2,9.733876407719208,4084.3254,174.466,177.19,258.52,C4H7I3,"1,1,1-triiodo-2-methylpropane",---,323.01340429202924,ML
CC(C)(I)C(I)I,2,9.733876407719208,4084.3254,174.466,177.19,258.52,C4H7I3,"1,1,2-triiodo-2-methylpropane",---,328.0526375596359,ML
CC(CI)C(I)I,2,10.10616640771921,4232.6994,173.69,179.42,257.99,C4H7I3,"1,1,3-triiodo-2-methylpropane",---,318.4363661587134,ML
CC(I)(CI)CI,2,9.790956407719207,4107.0783,174.343,177.54,258.44,C4H7I3,"1,2,3-triiodo-2-methylpropane",---,322.3721569483508,ML
ICC(CI)CI,2,10.167196407719208,4257.018,173.568,179.77,257.91,C4H7I3,"1,3-diiodo-2-(iodomethyl)-propane",---,332.0533717860024,ML
CCCC#N,"1,2",4.477716407719209,1590.496,237.353,12.78,143.45,C4H7N,butyronitrile,109-74-0,161.25,Yaw
CC(C)C#N,"1,2",4.288256407719208,1430.8791,228.824,3.12,130.04,C4H7N,isobutyronitrile,78-82-0,201.7,Yaw
[C-]#[N+]CCC,2,3.870416407719208,1340.6825,228.542,4.57,147.06,C4H7N,propyl isocyanide,627-36-1,197.73021659600317,ML
[C-]#[N+]C(C)C,2,3.4782864077192084,1216.263,231.823,-4.87,150.98,C4H7N,isopropyl isocyanide,598-45-8,225.36085085806664,ML
CC(C)(O)C#N,3,7.201166407719208,3366.8771,310.947,59.77,177.0,C4H7NO,acetone cyanohydrin,75-86-5,253.15,Yaw
C=C(C)C(N)=O,3,10.232926407719209,3577.4929,193.007,102.32,167.2,C4H7NO,2-methacrylamide,79-39-0,383.65,Yaw
COCCC#N,"1,2",4.715776407719209,1870.5214,232.101,51.46,191.6,C4H7NO,3-methoxypropionitrile,110-67-8,210.12,Yaw
O=C1CCCN1,"1,2",4.688056407719209,2089.3907,200.634,117.44,275.63,C4H7NO,2-pyrrolidone,616-45-5,297.15,Yaw
CCCN=C=O,2,4.228216407719208,1392.9887,232.851,-4.83,121.85,C4H7NO,propyl isocyanate,110-78-1,264.18153633370275,ML
CC1CC1,"1,2",3.968366407719208,936.6542,234.18,-74.05,21.22,C4H8,methylcyclopropane,594-11-6,95.85,Yaw
C1CCC1,"1,2",4.324616407719208,1125.8091,249.476,-90.67,30.33,C4H8,cyclobutane,287-23-0,182.48,Yaw
C=CCC,"1,2",4.1565864077192085,1013.9682,250.292,-82.34,12.7,C4H8,1-butene,106-98-9,87.8,Yaw
CC=CC,"1,2",4.366616407719208,1125.5428,255.411,-75.25,21.44,C4H8,2-butene,107-01-7,169.15,Yaw
C=C(C)C,"1,2",4.115966407719209,984.2258,246.124,-82.0,11.87,C4H8,isobutene,115-11-7,132.4,Yaw
ClCCOCCBr,3,4.6780064077192085,1945.77,220.17,76.49,224.38,C4H8BrClO,2-bromoethyl 2-chloroethyl ether,51070-66-7,266.0662215391451,ML
CCCC(Br)Br,2,4.158926407719209,1630.1393,222.079,47.82,200.47,C4H8Br2,"1,1-dibromobutane",62168-25-6,247.17,Yaw
CCC(Br)CBr,"1,2",5.028106407719209,2215.5773,274.668,46.02,194.03,C4H8Br2,"1,2-dibromobutane",533-98-2,207.76,Yaw
CC(Br)CCBr,"1,2",4.222306407719208,1423.7959,163.158,70.13,199.94,C4H8Br2,"1,3-dibromobutane",107-80-2,247.17,Yaw
BrCCCCBr,"1,2",4.578136407719208,1841.2958,205.143,79.93,225.36,C4H8Br2,"1,4-dibromobutane",110-52-1,256.62,Yaw
CCC(C)(Br)Br,"1,2",4.045856407719208,1272.2826,169.916,44.76,169.83,C4H8Br2,"2,2-dibromobutane",50341-35-0,247.17,Yaw
CC(Br)C(C)Br,"1,2",4.658216407719209,1719.6099,211.306,51.67,183.35,C4H8Br2,"2,3-dibromobutane",5408-86-6,249.15,Yaw
CC(C)C(Br)Br,2,3.3580664077192086,1141.6986,170.104,47.82,203.36,C4H8Br2,"1,1-dibromo-2-methylpropane",33693-78-6,247.17,Yaw
CC(C)(Br)CBr,"1,2",4.024576407719208,1281.8919,168.466,48.61,175.8,C4H8Br2,"1,2-dibromo-2-methylpropane",594-34-3,283.65,Yaw
CC(CBr)CBr,2,4.398696407719209,1464.9457,163.158,70.13,194.35,C4H8Br2,"1,3-dibromo-2-methylpropane",28148-04-1,247.17,Yaw
FCCCCCl,2,5.322256407719209,1738.1555,224.178,17.13,121.98,C4H8ClF,1-chloro-4-fluorobutane,462-73-7,188.12725605311218,ML
CCCC(Cl)Cl,"1,2",4.163326407719208,1378.8837,217.348,10.79,139.66,C4H8Cl2,"1,1-dichlorobutane",541-33-3,202.81,Yaw
CCC(Cl)CCl,"1,2",4.552426407719208,1728.5767,256.854,11.84,149.74,C4H8Cl2,"1,2-dichlorobutane",616-21-7,202.81,Yaw
CC(Cl)CCCl,"1,2",3.912966407719209,1197.6472,174.222,32.49,157.36,C4H8Cl2,"1,3-dichlorobutane",1190-22-3,202.81,Yaw
ClCCCCCl,"1,2",5.067806407719209,1820.1117,222.302,39.64,159.53,C4H8Cl2,"1,4-dichlorobutane",110-56-5,235.85,Yaw
CCC(C)(Cl)Cl,"1,2",4.028706407719208,1311.865,221.58,0.41,130.35,C4H8Cl2,"2,2-dichlorobutane",4279-22-5,199.15,Yaw
C[C@@H](Cl)[C@@H](C)Cl,2,3.693376407719208,1106.2529,177.244,21.22,148.86,C4H8Cl2,"DL-2,3-dichlorobutane",2211-67-8,193.15,Yaw
CC(Cl)C(C)Cl,2,3.5690264077192086,1072.6231,178.257,18.56,149.96,C4H8Cl2,"meso-2,3-dichlorobutane",4028-56-2,192.75,Yaw
CC(C)C(Cl)Cl,"1,2",3.8029564077192086,1089.3234,181.441,10.21,129.62,C4H8Cl2,"1,1-dichloro-2-methylpropane",598-76-5,202.81,Yaw
CC(C)(Cl)CCl,"1,2",3.7473264077192088,1074.4647,179.878,11.03,131.9,C4H8Cl2,"1,2-dichloro-2-methylpropane",594-37-6,202.81,Yaw
CC(CCl)CCl,2,4.400826407719209,1302.9545,173.791,33.63,144.02,C4H8Cl2,"1,3-dichloro-2-methylpropane",616-19-3,202.81,Yaw
ClCCOCCCl,3,3.922286407719208,1611.2741,217.526,60.13,227.42,C4H8Cl2O,bis(2-chloroethyl) ether,111-44-4,226.15,Yaw
ClCCSCCCl,3,5.842886407719208,2738.141,252.628,101.88,241.46,C4H8Cl2S,bis(2-chloroethyl) sulfide,505-60-2,286.65,Yaw
ClCCSSSCCCl,3,6.349476407719209,3565.7,273.15,160.09,316.37,C4H8Cl2S3,bis(2-chloroethyl)-trisulfide,19149-77-0,298.64114496799897,ML
CCCC(F)F,2,3.758406407719209,1094.5362,237.542,-43.45,79.04,C4H8F2,"1,1-difluorobutane",2358-38-5,155.65,Yaw
CCC(F)CF,2,3.7054964077192087,933.7575,198.311,-31.16,75.96,C4H8F2,"1,2-difluorobutane",686-65-7,155.65,Yaw
CC(F)CCF,2,4.185006407719209,1042.6019,195.446,-23.56,72.99,C4H8F2,"1,3-difluorobutane",691-42-9,155.65,Yaw
FCCCCF,"1,2",3.917306407719209,1053.7506,191.199,-9.46,100.19,C4H8F2,"1,4-difluorobutane",372-90-7,155.65,Yaw
CCC(C)(F)F,"1,2",3.768276407719209,878.3306,202.236,-46.75,51.09,C4H8F2,"2,2-difluorobutane",353-81-1,155.65,Yaw
CC(F)C(C)F,2,3.5275064077192084,889.0946,198.365,-33.97,77.2,C4H8F2,"2,3-difluorobutane",666-21-7,155.65,Yaw
CC(C)C(F)F,2,3.0208364077192087,773.6151,202.411,-44.58,82.03,C4H8F2,"1,1-difluoro-2-methylpropane",62126-91-4,155.65,Yaw
CC(C)(F)CF,2,3.0412464077192087,774.6711,201.04,-43.65,81.66,C4H8F2,"1,2-difluoro-2-methylpropane",62126-92-5,155.65,Yaw
CC(CF)CF,2,4.3478164077192085,1079.4241,194.587,-21.29,72.15,C4H8F2,"1,3-difluoro-2-methylpropane",62126-93-6,155.65,Yaw
O=S(=O)(OCCF)OCCF,3,6.930886407719209,3335.6,273.15,105.39,229.97,C4H8F2O4S,bis(2-fluoroethyl)-sulfate,381-46-4,268.48358120810934,ML
CCCC(I)I,2,3.600196407719209,1627.2531,197.24,99.65,295.99,C4H8I2,"1,1-diiodobutane",66587-65-3,279.06,Yaw
CCC(I)CI,2,2.639376407719209,994.4202,122.013,97.98,303.25,C4H8I2,"1,2-diiodobutane",53161-72-1,279.06,Yaw
CC(I)CCI,2,3.918696407719208,1758.1429,193.904,109.25,292.08,C4H8I2,"1,3-diiodobutane",18371-24-9,279.06,Yaw
ICCCCI,"1,2",3.867516407719209,1760.6288,192.236,114.05,301.42,C4H8I2,"1,4-diiodobutane",628-21-7,279.05,Yaw
CCC(C)(I)I,2,3.5026064077192087,1587.0406,198.352,96.45,297.35,C4H8I2,"2,2-diiodobutane",29443-50-3,279.06,Yaw
CC(I)C(C)I,2,3.6505064077192086,1647.9667,196.684,101.25,295.32,C4H8I2,"2,3-diiodobutane",66587-66-4,279.06,Yaw
CC(C)C(I)I,2,3.363406407719209,1529.5802,200.02,91.65,299.45,C4H8I2,"1,1-diiodo-2-methylpropane",10250-55-2,279.06,Yaw
CC(C)(I)CI,2,3.5026064077192087,1587.0406,198.352,96.45,297.35,C4H8I2,"1,2-diiodo-2-methylpropane",66794-23-8,279.06,Yaw
CC(CI)CI,2,3.6505064077192086,1647.9667,196.684,101.25,295.32,C4H8I2,"1,3-diiodo-2-methylpropane",17616-44-3,279.06,Yaw
O=[N+]([O-])CCCC[N+](=O)[O-],3,4.702586407719209,1957.3459,197.545,99.77,247.15,C4H8N2O4,"1,4-dinitrobutane",4286-49-1,306.65,Yaw
CCC1CO1,"1,2",5.099906407719208,2041.8563,337.021,-44.52,88.46,C4H8O,"1,2-epoxybutane",106-88-7,143.87,Yaw
C=COCC,"1,2",4.303596407719208,1186.4584,240.84,-48.99,55.58,C4H8O,ethyl vinyl ether,109-92-2,157.35,Yaw
C=CCOC,2,5.1532764077192095,1444.8186,243.832,-38.43,53.93,C4H8O,3-methoxy-1-propene,627-40-7,157.35,Yaw
CCCC=O,"1,2",4.3341864077192085,1317.4444,229.115,-17.14,97.54,C4H8O,butyraldehyde,123-72-8,176.75,Yaw
CC(C)C=O,"1,2",4.4586464077192085,1307.6556,230.435,-24.16,84.09,C4H8O,isobutyraldehyde,78-84-2,208.15,Yaw
CCC(C)=O,"1,2",4.310486407719209,1323.0708,227.093,-13.39,102.9,C4H8O,methyl ethyl ketone,78-93-3,186.48,Yaw
C1CCOC1,"1,2",4.178956407719209,1247.2958,232.621,-26.79,89.02,C4H8O,tetrahydrofuran,109-99-9,165.1,Yaw
CC=CCO,"1,2",4.899366407719208,1684.586,222.287,26.17,144.06,C4H8O,2-buten-1-ol,6117-91-5,181.85,Yaw
C=CCCO,"1,2",4.899206407719209,1656.2321,224.511,19.77,135.68,C4H8O,3-buten-1-ol,627-27-0,241.71,Yaw
C=CC(C)O,"1,2",4.898856407719209,1597.7523,229.098,6.57,118.4,C4H8O,3-buten-2-ol,598-32-3,183.25,Yaw
C=C(C)CO,"1,2",4.880436407719209,1653.4087,224.233,20.31,136.82,C4H8O,2-methyl-2-propen-1-ol,513-42-8,223.15,Yaw
C1CSCCO1,"1,2",3.4468464077192085,1043.0744,155.567,40.22,176.01,C4H8OS,"1,4-oxathiane",15980-15-1,256.15,Yaw
C1C[Se]CCO1,3,3.0070264077192084,903.534,129.821,55.03,204.08,C4H8OSe,"1,4-oxaselenane",5368-46-7,284.2354432929576,ML
CCCC(=O)O,"1,2",4.833416407719208,1786.2007,206.702,59.33,187.39,C4H8O2,butanoic acid,107-92-6,267.95,Yaw
CC(C)C(=O)O,"1,2",4.753576407719208,1702.4244,204.285,52.32,178.06,C4H8O2,isobutanoic acid,79-31-2,227.15,Yaw
CCCOC=O,"1,2",4.121416407719209,1194.7952,208.949,-9.89,103.79,C4H8O2,propyl formate,110-74-7,180.25,Yaw
CC(C)OC=O,"1,2",3.9462764077192087,1046.589,196.959,-17.35,90.15,C4H8O2,isopropyl formate,625-55-8,180.15,Yaw
CCOC(C)=O,"1,2",4.379286407719209,1338.5652,228.608,-14.78,99.61,C4H8O2,ethyl acetate,141-78-6,189.6,Yaw
CCC(=O)OC,"1,2",4.329676407719209,1329.7878,227.283,-13.16,102.8,C4H8O2,methyl propanoate,554-12-1,185.65,Yaw
C1COCCO1,"1,2",4.426676407719208,1487.9209,234.976,0.92,125.68,C4H8O2,"1,4-dioxane",123-91-1,284.95,Yaw
OCC=CCO,"1,2",6.952196407719208,3621.7711,285.904,124.12,258.63,C4H8O2,"cis-2-butene-1,4-diol",6117-80-2,284.15,Yaw
C=CC(O)CO,3,5.840406407719209,2306.3853,201.437,97.27,214.92,C4H8O2,"3-butene-1,2-diol",497-06-3,288.25,Yaw
C1COCOC1,"1,2",4.600286407719208,1660.8274,255.477,0.78,130.83,C4H8O2,"1,3-dioxane",505-22-6,228.15,Yaw
O=S1(=O)CCCC1,"1,2",4.591046407719209,2234.203,201.794,143.42,319.0,C4H8O2S,sulfolane,126-33-0,300.55,Yaw
C=CCS(C)(=O)=O,3,7.0692864077192095,3563.0,273.15,124.95,253.28,C4H8O2S,allylmethyl sulfone,16215-14-8,314.2221185851817,ML
C1CCSC1,"1,2",4.285816407719208,1503.5674,230.974,12.85,146.35,C4H8S,tetrahydrothiophene,110-01-0,176.99,Yaw
CCC1CS1,2,3.821366407719209,1269.7183,219.05,3.62,141.63,C4H8S,2-ethylthiacyclopropane,3195-86-6,182.50885437404827,ML
CC1(C)CS1,2,3.1944964077192086,1072.9608,222.66,-11.25,148.16,C4H8S,"2,2-dimethylthiacyclopropane",3772-13-2,180.41446616549254,ML
CC1SC1C,2,2.905756407719209,1018.3822,237.252,-24.49,153.72,C4H8S,"2,cis-3-dimethylthiacyclopropane",5954-71-2,175.64797955411845,ML
CCCCBr,"1,2",4.404026407719209,1463.6875,231.502,1.39,125.23,C4H9Br,1-bromobutane,109-65-9,160.75,Yaw
CCC(C)Br,"1,2",4.374676407719209,1439.5096,238.205,-8.09,115.17,C4H9Br,2-bromobutane,78-76-2,161.25,Yaw
CC(C)CBr,"1,2",4.422776407719208,1466.2588,240.374,-7.77,115.36,C4H9Br,1-bromo-2-methylpropane,78-77-3,155.75,Yaw
CC(C)(C)Br,"1,2",4.422836407719209,1469.3479,258.969,-25.87,97.51,C4H9Br,2-bromo-2-methylpropane,507-19-7,256.95,Yaw
CCCCCl,"1,2",4.311856407719208,1344.7283,235.017,-17.87,100.26,C4H9Cl,1-chlorobutane,109-69-3,150.05,Yaw
CCC(C)Cl,"1,2",4.370056407719209,1378.0728,247.194,-26.73,91.48,C4H9Cl,2-chlorobutane,78-86-4,141.85,Yaw
CC(C)CCl,"1,2",4.1184864077192085,1221.5076,227.841,-24.23,92.14,C4H9Cl,1-chloro-2-methylpropane,513-36-0,142.85,Yaw
CC(C)(C)Cl,"1,2",4.061066407719209,1172.3462,237.729,-40.43,74.06,C4H9Cl,2-chloro-2-methylpropane,507-20-0,247.75,Yaw
CCCC[Si](F)(F)Cl,3,4.912166407719209,1754.4,273.15,-14.88,107.32,C4H9ClF2Si,butylchlorodifluoro-silane,10132-56-6,184.8565317260301,ML
CC(O)OCCCl,3,9.58740640771921,3899.7133,249.45,90.6,170.49,C4H9ClO2,1-(2-chloroethoxy)-ethanol,108743-22-2,252.65929114203198,ML
CCCCS(=O)(=O)Cl,3,4.827826407719209,1999.818,215.207,82.89,226.57,C4H9ClO2S,1-butanesulfonyl chloride,2386-60-9,234.6799604145946,ML
CCSCCCl,3,5.396326407719208,2318.8,273.15,45.49,181.94,C4H9ClS,2-chloroethyl ethyl sulfide,693-07-2,214.33839989312477,ML
CCCC[Si](F)(Cl)Cl,3,4.812316407719209,1873.3,273.15,6.73,142.1,C4H9Cl2FSi,butyldichlorofluoro-silane,10132-55-5,201.39098757823888,ML
CCCC[Si](Cl)(Cl)Cl,3,4.118666407719209,1496.2343,214.781,34.61,177.15,C4H9Cl3Si,butyltrichlorosilane,7521-80-4,225.48009951287838,ML
CCCCF,2,5.3194264077192095,1347.2618,237.805,-50.69,30.66,C4H9F,1-fluorobutane,2366-52-1,139.15,Yaw
CCC(C)F,2,4.633206407719209,1150.9727,232.952,-56.26,32.73,C4H9F,2-fluorobutane,359-01-3,151.75,Yaw
CC(C)CF,2,4.332416407719209,1176.1079,256.0,-66.71,35.74,C4H9F,1-fluoro-2-methylpropane,359-00-2,162.35,Yaw
CC(C)(C)F,2,3.8635064077192087,988.3074,240.339,-77.0,37.08,C4H9F,2-fluoro-2-methylpropane,353-61-7,196.15,Yaw
OCCCCF,3,8.305386407719208,3343.0,273.15,49.85,144.5,C4H9FO,4-fluoro-1-butanol,372-93-0,215.19193698901518,ML
CCCC[Si](F)(F)F,3,4.986556407719209,1623.4,274.15,-37.76,72.32,C4H9F3Si,butyltrifluorosilane,371-93-7,175.9174778995367,ML
CCCCI,"1,2",4.346626407719208,1556.0227,228.134,21.73,156.49,C4H9I,1-iodobutane,542-69-8,170.15,Yaw
CCC(C)I,"1,2",5.6392264077192085,2258.3084,281.614,18.69,141.43,C4H9I,2-iodobutane,513-48-4,169.15,Yaw
CC(C)CI,"1,2",5.600266407719209,2241.6352,280.223,19.42,142.79,C4H9I,1-iodo-2-methylpropane,513-38-2,182.45,Yaw
CC(C)(C)I,"1,2",3.871946407719209,1202.8243,210.601,-1.51,126.24,C4H9I,2-iodo-2-methylpropane,558-17-8,234.96,Yaw
C1CCNC1,"1,2",4.256336407719209,1288.8514,215.958,-5.95,109.9,C4H9N,pyrrolidine,123-75-1,211.95,Yaw
C=CCNC,"1,2",4.566886407719209,1385.2392,238.272,-23.43,86.45,C4H9N,N-methyl-2-propen-1-amine,627-37-2,178.43909287813048,ML
C=C(C)CN,2,5.4732164077192085,1633.6996,234.38,-12.23,81.48,C4H9N,2-methylallylamine,2878-14-0,201.99370137371704,ML
CC(=O)N(C)C,"1,2",3.892776407719209,1195.2174,141.984,65.03,190.78,C4H9NO,"N,N-dimethylacetamide",127-19-5,253.15,Yaw
C1COCCN1,3,3.429236407719209,1321.8924,224.51,-3.1,198.06,C4H9NO,morpholine,110-91-8,268.55,Yaw
CCC(C)=NO,"1,2",4.7028764077192085,1716.2122,212.378,48.3,177.51,C4H9NO,2-butanone oxime,96-29-7,243.65,Yaw
CCC(=O)NC,3,2.116976407719209,348.6068,3.705,81.1,188.27,C4H9NO,N-methylpropanamide,1187-58-2,242.25,Yaw
CCCC[N+](=O)[O-],"1,2",5.265316407719208,2451.961,312.632,30.49,181.29,C4H9NO2,1-nitrobutane,627-05-4,191.82,Yaw
CCC(C)[N+](=O)[O-],"1,2",4.595476407719208,1822.8122,257.003,24.46,167.45,C4H9NO2,2-nitrobutane,600-24-8,141.16,Yaw
CC(C)C[N+](=O)[O-],"1,2",4.479776407719209,1605.491,216.666,35.75,167.54,C4H9NO2,1-nitro-2-methylpropane,625-74-1,196.3,Yaw
CC(C)(C)[N+](=O)[O-],"1,2",4.463676407719209,1553.1971,220.714,24.1,152.41,C4H9NO2,2-nitro-2-methylpropane,594-70-7,299.38,Yaw
CCCCO[N+](=O)[O-],"1,2",4.3454464077192085,1543.2416,219.09,28.77,162.48,C4H9NO3,butyl nitrate,928-45-0,161.56,Yaw
CC(C)CO[N+](=O)[O-],"1,2",4.340666407719208,1498.4386,221.759,19.09,149.17,C4H9NO3,isobutyl nitrate,543-29-3,161.56,Yaw
CCC(C)O[N+](=O)[O-],"1,2",4.464936407719208,1543.046,221.592,21.57,148.98,C4H9NO3,sec-butyl nitrate,924-52-7,161.56,Yaw
CCCC,"1,2",4.128266407719209,1022.3862,248.145,-78.0,18.99,C4H10,butane,106-97-8,134.9,Yaw
CC(C)C,"1,2",4.0546964077192085,954.182,247.077,-86.32,7.12,C4H10,isobutane,75-28-5,113.73,Yaw
CC[Al](Cl)CC,3,5.360946407719208,2484.53,255.45,87.63,235.57,C4H10AlCl,diethylaluminum chloride,96-10-6,257.0481384408547,ML
CC[O+](CC)[B-](F)(F)F,3,7.2218764077192095,2879.0,273.15,43.13,142.84,C4H10BF3O,boron trifluoride etherate,109-63-7,212.75,Yaw
CCSCC.FB(F)F,3,5.654186407719209,1893.0,273.15,-21.92,80.47,C4H10BF3S,diethyl sulfide-boron trifluoride,900000-41-1,226.80418413475988,ML
CC[Si](F)(F)CC,3,3.8887764077192086,1066.6124,213.28,-29.15,84.01,C4H10F2Si,diethyldifluorosilane,358-06-5,194.45,Yaw
CCN(CC)S(F)(F)F,3,5.529426407719209,2363.6,273.15,44.85,178.92,C4H10F3NS,diethylaminosulfur trifluoride,38078-09-0,218.66966356202275,ML
CCCCO,"1,2",4.420486407719209,1285.0227,173.247,30.68,138.69,C4H10O,butanol,71-36-3,183.85,Yaw
CC(C)CO,"1,2",4.280336407719209,1164.4309,164.392,24.6,128.23,C4H10O,isobutanol,78-83-1,165.15,Yaw
CCC(C)O,"1,2",4.633136407719209,1322.1119,186.51,16.46,118.68,C4H10O,sec-butanol,78-92-2,158.45,Yaw
CCCOC,"1,2",3.7762564077192087,854.9293,187.846,-36.72,58.16,C4H10O,methyl propyl ether,557-17-5,133.97,Yaw
COC(C)C,"1,2",4.299786407719209,1184.3132,244.686,-53.07,51.49,C4H10O,methyl isopropyl ether,598-53-8,127.93,Yaw
CCOCC,"1,2",4.159486407719209,1111.4449,232.657,-48.65,55.4,C4H10O,diethyl ether,60-29-7,156.85,Yaw
CC(C)(C)OO,3,6.886016407719209,2344.4675,233.128,34.3,122.9,C4H10O2,t-butyl hydroperoxide,75-91-2,277.45,Yaw
COCCOC,"1,2",4.382986407719208,1410.3498,236.928,-11.77,108.58,C4H10O2,"1,2-dimethoxyethane",110-71-4,215.15,Yaw
CCOCCO,"1,2",5.515056407719209,2135.3178,252.03,36.69,157.5,C4H10O2,2-ethoxyethanol,110-80-5,214.15,Yaw
COC(C)CO,3,7.133396407719209,2299.8257,220.063,35.07,116.54,C4H10O2,2-methoxy-1-propanol,1589-47-5,188.95,Yaw
COCC(C)O,"1,2",5.171756407719208,1764.7387,222.677,27.55,139.64,C4H10O2,propylene glycol monomethyl ether,107-98-2,188.95,Yaw
CO[C@@H](C)CO,3,11.288486407719208,3551.4176,212.266,57.41,110.96,C4H10O2,(S)-(+)-2-methoxypropanol,116422-39-0,188.95,Yaw
CCC(O)OC,3,6.284706407719209,2042.8038,222.704,27.47,118.69,C4H10O2,methoxypropanol,1320-67-8,176.55,Yaw
COC[C@H](C)O,3,11.288486407719208,3551.4176,212.266,57.41,110.96,C4H10O2,(S)-(+)-1-methoxy-2-propanol,26550-55-0,188.95,Yaw
COC[C@@H](C)O,3,11.288486407719208,3551.4176,212.266,57.41,110.96,C4H10O2,(R)-(-)-1-methoxy-2-propanol,4984-22-9,176.15,Yaw
COCCCO,3,11.288486407719208,3551.4176,212.266,57.41,110.96,C4H10O2,3-methoxy-1-propanol,1589-49-7,188.95,Yaw
CCC(O)CO,"1,2",5.120966407719209,2015.6395,203.105,84.77,215.08,C4H10O2,"1,2-butanediol",584-03-2,273.22,Yaw
CC(O)CCO,"1,2",5.179496407719208,2097.8321,198.176,98.95,231.84,C4H10O2,"1,3-butanediol",107-88-0,196.15,Yaw
OCCCCO,"1,2",5.016106407719208,2120.46,192.68,114.77,257.04,C4H10O2,"1,4-butanediol",110-63-4,293.05,Yaw
CC(O)C(C)O,"1,2",5.036636407719208,1955.9757,205.83,76.93,207.21,C4H10O2,"DL-2,3-butanediol",6982-25-8,280.75,Yaw
CC(C)(O)CO,"1,2",5.126106407719208,1971.3977,206.58,74.77,201.99,C4H10O2,"2-methyl-1,2-propanediol",558-43-0,273.22,Yaw
C[C@@H](O)CCO,3,3.712056407719208,1513.8457,212.266,58.41,231.54,C4H10O2,"(R)-(-)-1,3-butanediol",6290-03-5,293.4624165222852,ML
CC(CO)CO,3,6.137196407719209,2406.5432,196.572,103.57,215.78,C4H10O2,"2-methyl-1,3-propanediol",2163-42-0,182.15,Yaw
CCOOCC,"1,2",4.631466407719208,1593.8962,279.145,-39.0,88.92,C4H10O2,diethylperoxide,628-37-5,203.15,Yaw
COC(C)OC,"1,2",3.759376407719208,1010.875,204.344,-25.12,87.96,C4H10O2,dimethylacetal,534-15-6,159.95,Yaw