smiles,code,A [log10(atm)],B [C],C [C],TMIN [C],TMAX [C],FORMULA,NAME,CAS No,mp [K],mp_type
CCCCCC(Br)CC(C)Br,2,4.556316407719208,2021.4009,185.452,128.57,289.58,C9H18Br2,"2,4-dibromononane",---,280.75200617914123,ML
CCCCC(Br)CCC(C)Br,2,4.592226407719209,2036.058,185.174,129.37,289.3,C9H18Br2,"2,5-dibromononane",---,282.1171708793991,ML
CCCC(Br)CCCC(C)Br,2,4.628586407719209,2050.8941,184.896,130.17,289.02,C9H18Br2,"2,6-dibromononane",---,282.5373132111552,ML
CCC(Br)CCCCC(C)Br,2,4.665416407719209,2065.9124,184.618,130.97,288.74,C9H18Br2,"2,7-dibromononane",---,281.07417403453377,ML
CC(Br)CCCCCC(C)Br,2,4.702696407719209,2081.1165,184.34,131.77,288.46,C9H18Br2,"2,8-dibromononane",---,280.8397009900243,ML
FCCCCCCCCCCl,2,4.874916407719208,2061.4987,190.178,114.97,260.53,C9H18ClF,1-chloro-9-fluorononane,463-23-0,261.2207733712548,ML
CCCCCCCCC(Cl)Cl,2,4.415166407719209,1923.1085,192.68,112.77,274.76,C9H18Cl2,"1,1-dichlorononane",821-88-5,270.5401672556255,ML
CCCCCCCC(Cl)CCl,2,4.214406407719209,1834.4915,192.402,108.57,276.37,C9H18Cl2,"1,2-dichlorononane",---,279.2875831321411,ML
CCCCCCC(Cl)CCCl,2,4.2470064077192085,1847.5033,192.124,109.37,276.07,C9H18Cl2,"1,3-dichlorononane",---,275.5818742627395,ML
CCCCCC(Cl)CCCCl,2,4.280006407719209,1860.6678,191.846,110.17,275.78,C9H18Cl2,"1,4-dichlorononane",---,275.5984831472014,ML
CCCCC(Cl)CCCCCl,2,4.313406407719208,1873.9879,191.568,110.97,275.48,C9H18Cl2,"1,5-dichlorononane",---,276.1920463790878,ML
CCCC(Cl)CCCCCCl,2,4.3472064077192085,1887.4663,191.29,111.77,275.19,C9H18Cl2,"1,6-dichlorononane",---,276.6572643602088,ML
CCC(Cl)CCCCCCCl,2,4.381426407719209,1901.106,191.012,112.57,274.9,C9H18Cl2,"1,7-dichlorononane",---,277.4312177403639,ML
CC(Cl)CCCCCCCCl,2,4.416076407719209,1914.91,190.734,113.37,274.61,C9H18Cl2,"1,8-dichlorononane",---,276.58861384534026,ML
ClCCCCCCCCCCl,"1,2",4.979556407719208,2210.0971,183.784,138.37,288.61,C9H18Cl2,"1,9-dichlorononane",821-99-8,277.8028771503526,ML
CCCCCCCC(C)(Cl)Cl,2,3.879806407719209,1700.711,195.46,99.77,279.76,C9H18Cl2,"2,2-dichlorononane",---,268.4879768996755,ML
CCCCCCC(Cl)C(C)Cl,2,3.908516407719208,1712.2084,195.182,100.57,279.44,C9H18Cl2,"2,3-dichlorononane",---,277.96264160340735,ML
CCCCCC(Cl)CC(C)Cl,2,3.937546407719209,1723.8319,194.904,101.37,279.13,C9H18Cl2,"2,4-dichlorononane",---,279.13679705543154,ML
CCCCC(Cl)CCC(C)Cl,2,3.966916407719209,1735.5837,194.626,102.17,278.82,C9H18Cl2,"2,5-dichlorononane",---,279.77929921684637,ML
CCCC(Cl)CCCC(C)Cl,2,3.996616407719209,1747.466,194.348,102.97,278.5,C9H18Cl2,"2,6-dichlorononane",---,279.86673626554506,ML
CCC(Cl)CCCCC(C)Cl,2,4.026646407719209,1759.4811,194.07,103.77,278.19,C9H18Cl2,"2,7-dichlorononane",---,280.2939372102462,ML
CC(Cl)CCCCCC(C)Cl,2,4.057036407719209,1771.6311,193.792,104.57,277.89,C9H18Cl2,"2,8-dichlorononane",---,277.9019912315221,ML
CC(C)(Cl)CCCC(C)(C)Cl,2,3.908516407719208,1712.2084,195.182,100.57,279.44,C9H18Cl2,"2,6-dichloro-2,6-dimethylheptane",35951-36-1,316.15,Yaw
CCCCCCCCC(F)F,3,3.780516407719209,1537.1662,210.75,60.77,231.03,C9H18F2,"1,1-difluorononane",62127-42-8,227.07320388128832,ML
CCCCCCCC(F)CF,3,3.8103464077192086,1548.2376,210.472,61.57,230.71,C9H18F2,"1,2-difluorononane",---,229.93565116277037,ML
CCCCCCC(F)CCF,3,3.840546407719208,1559.4376,210.194,62.37,230.39,C9H18F2,"1,3-difluorononane",---,230.85662492589003,ML
CCCCCC(F)CCCF,3,3.871096407719208,1570.7686,209.916,63.17,230.07,C9H18F2,"1,4-difluorononane",---,230.83489684719916,ML
CCCCC(F)CCCCF,3,3.902026407719209,1582.2329,209.638,63.97,229.75,C9H18F2,"1,5-difluorononane",---,231.63502900458823,ML
CCCC(F)CCCCCF,3,3.9333264077192087,1593.8329,209.36,64.77,229.43,C9H18F2,"1,6-difluorononane",---,231.4011486362978,ML
CCC(F)CCCCCCF,3,3.965016407719209,1605.5713,209.082,65.57,229.12,C9H18F2,"1,7-difluorononane",---,231.70623915614735,ML
CC(F)CCCCCCCF,3,3.9970964077192086,1617.4504,208.804,66.37,228.81,C9H18F2,"1,8-difluorononane",---,232.42543214602165,ML
FCCCCCCCCCF,3,4.029576407719208,1629.473,208.526,67.17,228.5,C9H18F2,"1,9-difluorononane",---,246.3281068940295,ML
CCCCCCCC(C)(F)F,3,3.5005264077192084,1433.0517,213.53,52.77,234.37,C9H18F2,"2,2-difluorononane",---,224.14982186513944,ML
CCCCCCC(F)C(C)F,3,3.5271064077192085,1442.9535,213.252,53.57,234.03,C9H18F2,"2,3-difluorononane",---,223.05990330190664,ML
CCCCCC(F)CC(C)F,3,3.5539864077192087,1452.9635,212.974,54.37,233.68,C9H18F2,"2,4-difluorononane",---,227.3939187786324,ML
CCCCC(F)CCC(C)F,3,3.5811764077192088,1463.0835,212.696,55.17,233.35,C9H18F2,"2,5-difluorononane",---,227.15763026906254,ML
CCCC(F)CCCC(C)F,3,3.6086764077192086,1473.3153,212.418,55.97,233.01,C9H18F2,"2,6-difluorononane",---,228.04073103350026,ML
CCC(F)CCCCC(C)F,3,3.636496407719209,1483.6608,212.14,56.77,232.67,C9H18F2,"2,7-difluorononane",---,228.78396502785174,ML
CC(F)CCCCCC(C)F,3,3.664636407719208,1494.1222,211.862,57.57,232.34,C9H18F2,"2,8-difluorononane",---,228.2664499236581,ML
CC(C)(F)CCCC(C)(C)F,3,3.693096407719208,1504.7013,211.584,58.37,232.01,C9H18F2,"2,6-difluoro-2,6-dimethylheptane",---,227.58098185830923,ML
CCCCCCCCC(I)I,2,4.703176407719209,2319.0229,167.772,184.45,359.02,C9H18I2,"1,1-diiodononane",66703-05-7,294.136296685303,ML
CCCCCCCC(I)CI,2,4.7370564077192086,2334.4089,167.494,185.25,358.75,C9H18I2,"1,2-diiodononane",---,297.0624631495555,ML
CCCCCCC(I)CCI,2,4.771316407719208,2349.9678,167.216,186.05,358.47,C9H18I2,"1,3-diiodononane",---,294.29643846797,ML
CCCCCC(I)CCCI,2,4.805976407719209,2365.7025,166.938,186.85,358.2,C9H18I2,"1,4-diiodononane",---,294.61126883827893,ML
CCCCC(I)CCCCI,2,4.8410364077192085,2381.6161,166.66,187.65,357.92,C9H18I2,"1,5-diiodononane",---,294.6898851724471,ML
CCCC(I)CCCCCI,2,4.876516407719208,2397.7118,166.382,188.45,357.65,C9H18I2,"1,6-diiodononane",---,294.71960149304414,ML
CCC(I)CCCCCCI,2,4.912406407719208,2413.9928,166.104,189.25,357.38,C9H18I2,"1,7-diiodononane",---,294.8611596533704,ML
CC(I)CCCCCCCI,2,4.948716407719209,2430.4623,165.826,190.05,357.11,C9H18I2,"1,8-diiodononane",---,295.1765286315038,ML
ICCCCCCCCCI,2,4.985466407719208,2447.1238,165.548,190.85,356.85,C9H18I2,"1,9-diiodononane",---,302.10620243521583,ML
CCCCCCCC(C)(I)I,2,4.384456407719209,2174.0573,170.552,176.45,361.86,C9H18I2,"2,2-diiodononane",---,289.91396868176383,ML
CCCCCCC(I)C(C)I,2,4.414776407719208,2187.8654,170.274,177.25,361.57,C9H18I2,"2,3-diiodononane",---,292.2985385156401,ML
CCCCCC(I)CC(C)I,2,4.445426407719209,2201.8199,169.996,178.05,361.28,C9H18I2,"2,4-diiodononane",---,291.63590836025435,ML
CCCCC(I)CCC(C)I,2,4.476416407719209,2215.9232,169.718,178.85,360.99,C9H18I2,"2,5-diiodononane",---,292.9876363198329,ML
CCCC(I)CCCC(C)I,2,4.507746407719209,2230.1776,169.44,179.65,360.71,C9H18I2,"2,6-diiodononane",---,292.4251434069419,ML
CCC(I)CCCCC(C)I,2,4.539416407719209,2244.5857,169.162,180.45,360.42,C9H18I2,"2,7-diiodononane",---,293.0607840509927,ML
CC(I)CCCCCC(C)I,2,4.571436407719209,2259.15,168.884,181.25,360.14,C9H18I2,"2,8-diiodononane",---,293.4777324947938,ML
CCCCCCCCC=O,"1,2",5.013936407719209,1969.9988,201.854,83.87,216.15,C9H18O,1-nonanal,124-19-6,255.15,Yaw
CCCCCCC(C)C=O,2,4.547936407719209,1795.716,204.996,74.33,217.83,C9H18O,2-methyloctanal,7786-29-0,255.15,Yaw
CCCCCC(C)CC=O,2,4.547936407719209,1795.716,204.996,74.33,217.83,C9H18O,3-methyloctanal,25882-73-9,255.15,Yaw
CCCCC(C)CCC=O,2,4.547936407719209,1795.716,204.996,74.33,217.83,C9H18O,4-methyloctanal,---,255.15,Yaw
CCCC(C)CCCC=O,2,4.547936407719209,1795.716,204.996,74.33,217.83,C9H18O,5-methyloctanal,---,255.15,Yaw
CCC(C)CCCCC=O,2,4.547936407719209,1795.716,204.996,74.33,217.83,C9H18O,6-methyloctanal,---,255.15,Yaw
CC(C)CCCCCC=O,2,4.547936407719209,1795.716,204.996,74.33,217.83,C9H18O,7-methyloctanal,49824-43-3,255.15,Yaw
CCCCCC(C)(C)C=O,2,4.528006407719209,1788.4767,205.135,73.93,217.98,C9H18O,"2,2-dimethylheptanal",---,255.15,Yaw
CCCCC(C)C(C)C=O,2,4.600406407719209,1814.7695,204.634,75.37,217.47,C9H18O,"2,3-dimethylheptanal",---,255.15,Yaw
CCCC(C)CC(C)C=O,2,4.600406407719209,1814.7695,204.634,75.37,217.47,C9H18O,"2,4-dimethylheptanal",---,255.15,Yaw
CCC(C)CCC(C)C=O,2,4.600406407719209,1814.7695,204.634,75.37,217.47,C9H18O,"2,5-dimethylheptanal",---,255.15,Yaw
CC(C)CCCC(C)C=O,2,4.600406407719209,1814.7695,204.634,75.37,217.47,C9H18O,"2,6-dimethylheptanal",---,255.15,Yaw
CC(CC=O)CC(C)(C)C,2,4.538846407719209,1792.4116,205.059,74.15,217.9,C9H18O,"3,5,5-trimethylhexanal",5435-64-3,255.15,Yaw
CCCCCCCC(C)=O,"1,2",4.512826407719209,1791.5137,202.132,78.07,223.22,C9H18O,2-nonanone,821-55-6,265.65,Yaw
CCCCCCC(=O)CC,"1,2",4.642186407719208,1814.1386,203.244,74.87,214.65,C9H18O,3-nonanone,925-78-0,265.15,Yaw
CCCCCC(=O)CCC,"1,2",4.539816407719209,1777.2914,203.939,72.87,215.35,C9H18O,4-nonanone,4485-09-0,254.63,Yaw
CCCCC(=O)CCCC,2,4.689606407719209,1822.0126,203.675,73.63,211.5,C9H18O,5-nonanone,502-56-7,267.25,Yaw
CCCCCC(C)C(C)=O,2,4.3770964077192085,1710.8773,206.024,67.37,213.71,C9H18O,3-methyl-2-octanone,6137-08-2,254.63,Yaw
CCCCC(C)CC(C)=O,2,4.3770964077192085,1710.8773,206.024,67.37,213.71,C9H18O,4-methyl-2-octanone,27608-01-1,254.63,Yaw
CCCC(C)CCC(C)=O,2,4.3770964077192085,1710.8773,206.024,67.37,213.71,C9H18O,5-methyl-2-octanone,58654-67-4,254.63,Yaw
CCC(C)CCCC(C)=O,2,4.3770964077192085,1710.8773,206.024,67.37,213.71,C9H18O,6-methyl-2-octanone,925-69-9,254.63,Yaw
CC(=O)CCCCC(C)C,2,4.3770964077192085,1710.8773,206.024,67.37,213.71,C9H18O,7-methyl-2-octanone,---,254.63,Yaw
CCCCCC(=O)C(C)C,"1,2",4.538796407719208,1761.426,205.232,69.15,210.42,C9H18O,2-methyl-3-octanone,923-28-4,254.63,Yaw
CCCCC(C)C(=O)CC,2,4.512826407719209,1759.5721,205.059,70.15,212.71,C9H18O,4-methyl-3-octanone,6137-15-1,254.63,Yaw
CCCC(C)CC(=O)CC,2,4.512826407719209,1759.5721,205.059,70.15,212.71,C9H18O,5-methyl-3-octanone,---,254.63,Yaw
CCC(=O)CCC(C)CC,2,4.512826407719209,1759.5721,205.059,70.15,212.71,C9H18O,6-methyl-3-octanone,---,254.63,Yaw
CCC(=O)CCCC(C)C,2,4.446766407719209,1735.0176,205.329,68.87,213.18,C9H18O,7-methyl-3-octanone,5408-57-1,254.63,Yaw
CCCCC(=O)CC(C)C,2,4.512826407719209,1759.5721,205.059,70.15,212.71,C9H18O,2-methyl-4-octanone,7492-38-8,254.63,Yaw
CCCCC(=O)C(C)CC,"1,2",4.539026407719208,1731.8314,207.692,62.07,200.95,C9H18O,3-methyl-4-octanone,20754-04-5,254.63,Yaw
CCCC(=O)C(C)CCC,2,4.3770964077192085,1710.8773,206.024,67.37,213.71,C9H18O,5-methyl-4-octanone,---,254.63,Yaw
CCCC(=O)CC(C)CC,2,4.3770964077192085,1710.8773,206.024,67.37,213.71,C9H18O,6-methyl-4-octanone,---,254.63,Yaw
CCCC(=O)CCC(C)C,"1,2",4.541656407719208,1745.9505,206.58,65.27,205.14,C9H18O,7-methyl-4-octanone,20809-46-5,254.63,Yaw
CC(C)CCC(=O)C(C)C,"1,2",4.531496407719208,1722.6028,208.29,60.35,198.9,C9H18O,"2,6-dimethyl-3-heptanone",19549-83-8,254.63,Yaw
CCC(C)C(=O)C(C)CC,"1,2",4.522646407719209,1687.2998,211.028,52.47,188.65,C9H18O,"3,5-dimethyl-4-heptanone",19549-84-9,254.63,Yaw
CC(C)CC(=O)CC(C)C,"1,2",4.545876407719208,1714.4218,209.288,57.48,194.6,C9H18O,diisobutyl ketone,108-83-8,227.17,Yaw
CC(C)(C)C(=O)C(C)(C)C,"1,2",4.523876407719209,1654.1912,213.808,44.47,177.92,C9H18O,di-tert-butyl ketone,815-24-7,247.95,Yaw
CCCC1(O)CCCCC1,2,3.9998864077192087,1659.5748,205.059,77.15,243.61,C9H18O,1-propylcyclohexanol,5445-24-9,310.05,Yaw
CCC[C@H]1CCCC[C@H]1O,2,4.617506407719208,1893.3263,200.186,91.17,238.44,C9H18O,cis-2-propylcyclohexanol,5857-86-3,310.05,Yaw
CCC[C@@H]1CCCC[C@H]1O,2,3.9998864077192087,1659.5748,205.059,77.15,243.61,C9H18O,trans-2-propylcyclohexanol,5846-43-5,310.05,Yaw
CCC[C@H]1CC[C@@H](O)CC1,2,3.9998864077192087,1659.5748,205.059,77.15,243.61,C9H18O,cis-4-propylcyclohexanol,98790-22-8,310.05,Yaw
CCCC1CCC(O)CC1,2,4.906966407719208,2002.4637,198.24,96.77,236.52,C9H18O,trans-4-propylcyclohexanol,77866-58-1,310.05,Yaw
CC(C)C1(O)CCCCC1,2,3.774576407719208,1573.9293,207.136,71.17,245.98,C9H18O,1-isopropylcyclohexanol,3552-01-0,299.15,Yaw
CC(C)[C@H]1CCCC[C@H]1O,2,3.9998864077192087,1659.5748,205.059,77.15,243.61,C9H18O,cis-2-isopropylcyclohexanol,10488-25-2,325.65,Yaw
CC(C)[C@H]1CC[C@@H](O)CC1,2,3.9998864077192087,1659.5748,205.059,77.15,243.61,C9H18O,cis-4-isopropylcyclohexanol,22900-08-9,311.15,Yaw
CC(C)[C@H]1CC[C@H](O)CC1,2,3.9998864077192087,1659.5748,205.059,77.15,243.61,C9H18O,trans-4-isopropylcyclohexanol,15890-36-5,283.15,Yaw
CCC1(O)CCCCC1C,2,3.953906407719209,1642.1137,205.468,36.9,244.07,C9H18O,1-ethyl-2-methylcyclohexanol,102370-18-3,310.05,Yaw
CCC1(O)CCCC(C)C1,2,3.9998864077192087,1659.5748,205.059,77.15,243.61,C9H18O,1-ethyl-3-methylcyclohexanol,62067-44-1,310.05,Yaw
CC1(C)CCCCC1(C)O,2,3.9998864077192087,1659.5748,205.059,77.15,243.61,C9H18O,"1,2,2-trimethylcyclohexanol",31720-69-1,310.05,Yaw
CC1CCCC(C)C1(C)O,2,3.9998864077192087,1659.5748,205.059,77.15,243.61,C9H18O,"1,2,6-trimethylcyclohexanol",96244-13-2,310.05,Yaw
CC1CC(C)CC(C)(O)C1,2,3.923126407719209,1630.4222,205.746,36.9,244.39,C9H18O,"1,3,5-trimethylcyclohexanol",90760-75-1,310.05,Yaw
CC1CCC(C)(C)C(O)C1,2,4.146576407719208,1715.2171,203.8,80.77,242.23,C9H18O,"2,2,5-trimethylcyclohexanol",73210-25-0,310.05,Yaw
CC1CCCC(C)(C)C1O,2,4.113476407719209,1702.6684,204.078,51.0,242.53,C9H18O,"2,2,6-trimethylcyclohexanol",10130-91-3,324.15,Yaw
CC1C(O)CCCC1(C)C,2,4.464046407719208,1835.3665,201.298,87.97,239.58,C9H18O,"2,3,3-trimethylcyclohexanol",116724-17-5,301.15,Yaw
CC1CCC(C)C(O)C1C,2,4.390296407719209,1807.4867,201.854,86.37,240.15,C9H18O,"2,3,6-trimethylcyclohexanol",58210-03-0,310.9,Yaw
CC1CC(O)CC(C)(C)C1,2,4.657176407719208,1908.2964,199.908,91.97,238.16,C9H18O,"cis-3,3,5-trimethylcyclohexanol",933-48-2,310.45,Yaw
CC(C)C1CCC(O)CC1,2,2.4905764077192085,1075.2232,221.87,24.1,269.2,C9H18O,4-(1-methylethyl)cyclohexanol,4621-04-9,310.05,Yaw
CCCCCCC=CCO,2,4.534086407719209,1909.4878,196.294,101.37,254.79,C9H18O,2-nonen-1-ol,22104-79-6,266.15,Yaw
CCCCCC=CCCO,2,4.534086407719209,1909.4878,196.294,101.37,254.79,C9H18O,3-nonen-1-ol,---,266.15,Yaw
CCCCC=CCCCO,2,4.534086407719209,1909.4878,196.294,101.37,254.79,C9H18O,4-nonen-1-ol,---,266.15,Yaw
CCCC=CCCCCO,2,4.534086407719209,1909.4878,196.294,101.37,254.79,C9H18O,5-nonen-1-ol,---,266.15,Yaw
CCC=CCCCCCO,2,4.534086407719209,1909.4878,196.294,101.37,254.79,C9H18O,6-nonen-1-ol,---,266.15,Yaw
CC=CCCCCCCO,2,4.534086407719209,1909.4878,196.294,101.37,254.79,C9H18O,7-nonen-1-ol,---,266.15,Yaw
C=CCCCCCCCO,2,4.534086407719209,1909.4878,196.294,101.37,254.79,C9H18O,8-nonen-1-ol,13038-21-6,266.15,Yaw
CCCCCC=CC(C)O,2,4.183526407719208,1773.4819,199.074,93.37,257.71,C9H18O,1-methyl-2-octen-1-ol,---,266.15,Yaw
CCCCCC=C(C)CO,2,4.183526407719208,1773.4819,199.074,93.37,257.71,C9H18O,2-methyl-2-octen-1-ol,---,266.15,Yaw
CCCCCC(C)=CCO,2,4.183526407719208,1773.4819,199.074,93.37,257.71,C9H18O,3-methyl-2-octen-1-ol,---,266.15,Yaw
CCCCC(C)C=CCO,2,4.183526407719208,1773.4819,199.074,93.37,257.71,C9H18O,4-methyl-2-octen-1-ol,---,266.15,Yaw
CCCC(C)CC=CCO,2,4.183526407719208,1773.4819,199.074,93.37,257.71,C9H18O,5-methyl-2-octen-1-ol,---,266.15,Yaw
CCC(C)CCC=CCO,2,4.183526407719208,1773.4819,199.074,93.37,257.71,C9H18O,6-methyl-2-octen-1-ol,---,266.15,Yaw
CC(C)CCCC=CCO,2,4.183526407719208,1773.4819,199.074,93.37,257.71,C9H18O,7-methyl-2-octen-1-ol,---,266.15,Yaw
CCCCC=CCC(C)O,2,4.183526407719208,1773.4819,199.074,93.37,257.71,C9H18O,1-methyl-3-octen-1-ol,---,266.15,Yaw
CCCCC=CC(C)CO,2,4.183526407719208,1773.4819,199.074,93.37,257.71,C9H18O,2-methyl-3-octen-1-ol,---,266.15,Yaw
CCCCC=C(C)CCO,2,4.183526407719208,1773.4819,199.074,93.37,257.71,C9H18O,3-methyl-3-octen-1-ol,---,266.15,Yaw
CCCCC(C)=CCCO,2,4.183526407719208,1773.4819,199.074,93.37,257.71,C9H18O,4-methyl-3-octen-1-ol,---,266.15,Yaw
CCCC(C)C=CCCO,2,4.183526407719208,1773.4819,199.074,93.37,257.71,C9H18O,5-methyl-3-octen-1-ol,---,266.15,Yaw
CCC(C)CC=CCCO,2,4.183526407719208,1773.4819,199.074,93.37,257.71,C9H18O,6-methyl-3-octen-1-ol,---,266.15,Yaw
CC(C)CCC=CCCO,2,4.183526407719208,1773.4819,199.074,93.37,257.71,C9H18O,7-methyl-3-octen-1-ol,---,266.15,Yaw
CCCC=CCCC(C)O,2,4.183526407719208,1773.4819,199.074,93.37,257.71,C9H18O,1-methyl-4-octen-1-ol,---,266.15,Yaw
CCCC=CCC(C)CO,2,4.183526407719208,1773.4819,199.074,93.37,257.71,C9H18O,2-methyl-4-octen-1-ol,---,266.15,Yaw
CCCC=CC(C)CCO,2,4.183526407719208,1773.4819,199.074,93.37,257.71,C9H18O,3-methyl-4-octen-1-ol,---,266.15,Yaw
CCCC=C(C)CCCO,2,4.183526407719208,1773.4819,199.074,93.37,257.71,C9H18O,4-methyl-4-octen-1-ol,---,266.15,Yaw
CCCC(C)=CCCCO,2,4.183526407719208,1773.4819,199.074,93.37,257.71,C9H18O,5-methyl-4-octen-1-ol,---,266.15,Yaw
CCC(C)C=CCCCO,2,4.183526407719208,1773.4819,199.074,93.37,257.71,C9H18O,6-methyl-4-octen-1-ol,---,266.15,Yaw
CC(C)CC=CCCCO,2,4.183526407719208,1773.4819,199.074,93.37,257.71,C9H18O,7-methyl-4-octen-1-ol,---,266.15,Yaw
CCC=CCCCC(C)O,2,4.183526407719208,1773.4819,199.074,93.37,257.71,C9H18O,1-methyl-5-octen-1-ol,---,266.15,Yaw
CCC=CCCC(C)CO,2,4.183526407719208,1773.4819,199.074,93.37,257.71,C9H18O,2-methyl-5-octen-1-ol,---,266.15,Yaw
CCC=CCC(C)CCO,2,4.183526407719208,1773.4819,199.074,93.37,257.71,C9H18O,3-methyl-5-octen-1-ol,---,266.15,Yaw
CCC=CC(C)CCCO,2,4.183526407719208,1773.4819,199.074,93.37,257.71,C9H18O,4-methyl-5-octen-1-ol,---,266.15,Yaw
CCC=C(C)CCCCO,2,4.183526407719208,1773.4819,199.074,93.37,257.71,C9H18O,5-methyl-5-octen-1-ol,---,266.15,Yaw
CCC(C)=CCCCCO,2,4.183526407719208,1773.4819,199.074,93.37,257.71,C9H18O,6-methyl-5-octen-1-ol,---,266.15,Yaw
CC(C)C=CCCCCO,2,4.183526407719208,1773.4819,199.074,93.37,257.71,C9H18O,7-methyl-5-octen-1-ol,---,266.15,Yaw
CC=CCCCCC(C)O,2,4.183526407719208,1773.4819,199.074,93.37,257.71,C9H18O,1-methyl-6-octen-1-ol,---,266.15,Yaw
CC=CCCCC(C)CO,2,4.183526407719208,1773.4819,199.074,93.37,257.71,C9H18O,2-methyl-6-octen-1-ol,---,266.15,Yaw
CC=CCCC(C)CCO,2,4.183526407719208,1773.4819,199.074,93.37,257.71,C9H18O,3-methyl-6-octen-1-ol,---,266.15,Yaw
CC=CCC(C)CCCO,2,4.183526407719208,1773.4819,199.074,93.37,257.71,C9H18O,4-methyl-6-octen-1-ol,---,266.15,Yaw
CC=CC(C)CCCCO,2,4.183526407719208,1773.4819,199.074,93.37,257.71,C9H18O,5-methyl-6-octen-1-ol,---,266.15,Yaw
CC=C(C)CCCCCO,2,4.183526407719208,1773.4819,199.074,93.37,257.71,C9H18O,6-methyl-6-octen-1-ol,---,266.15,Yaw
CC(C)=CCCCCCO,2,4.183526407719208,1773.4819,199.074,93.37,257.71,C9H18O,7-methyl-6-octen-1-ol,---,266.15,Yaw
C=CCCCCCC(C)O,2,4.183526407719208,1773.4819,199.074,93.37,257.71,C9H18O,1-methyl-7-octen-1-ol,---,266.15,Yaw
C=CCCCCC(C)CO,2,4.183526407719208,1773.4819,199.074,93.37,257.71,C9H18O,2-methyl-7-octen-1-ol,---,266.15,Yaw
C=CCCCC(C)CCO,2,4.183526407719208,1773.4819,199.074,93.37,257.71,C9H18O,3-methyl-7-octen-1-ol,---,266.15,Yaw
C=CCCC(C)CCCO,2,4.183526407719208,1773.4819,199.074,93.37,257.71,C9H18O,4-methyl-7-octen-1-ol,---,266.15,Yaw
C=CCC(C)CCCCO,2,4.183526407719208,1773.4819,199.074,93.37,257.71,C9H18O,5-methyl-7-octen-1-ol,---,266.15,Yaw
C=CC(C)CCCCCO,2,4.183526407719208,1773.4819,199.074,93.37,257.71,C9H18O,6-methyl-7-octen-1-ol,---,266.15,Yaw
C=C(C)CCCCCCO,2,4.183526407719208,1773.4819,199.074,93.37,257.71,C9H18O,7-methyl-7-octen-1-ol,---,266.15,Yaw
CCCCC=CC(C)(C)O,2,3.8567264077192087,1645.6654,201.854,84.97,260.97,C9H18O,cis-2-methyl-3-octen-2-ol,18521-07-8,266.15,Yaw
C=CC(C)(O)CCCCC,2,3.873176407719209,1652.6866,201.854,85.37,260.8,C9H18O,3-methyl-1-octen-3-ol,24089-00-7,266.15,Yaw
CCCC=CC(C)(O)CC,2,3.8567264077192087,1645.6654,201.854,84.97,260.97,C9H18O,3-methyl-4-octen-3-ol,90676-55-4,266.15,Yaw
C=CCC(C)(O)CCCC,2,3.8567264077192087,1645.6654,201.854,84.97,260.97,C9H18O,4-methyl-1-octen-4-ol,62108-06-9,266.15,Yaw
CCC=C(C)C(O)CCC,2,3.873176407719209,1652.6866,201.854,85.37,260.8,C9H18O,5-methyl-5-octen-4-ol,36903-92-1,266.15,Yaw
CC=CC(O)CCC(C)C,2,3.873176407719209,1652.6866,201.854,85.37,260.8,C9H18O,7-methyl-2-octen-4-ol,4798-64-5,266.15,Yaw
C=CC(O)CCCCCC,2,3.7992264077192086,1623.2442,202.41,83.37,261.61,C9H18O,1-nonen-3-ol,21964-44-3,266.15,Yaw
CCCCCCCCC(=O)O,"1,2",4.7699964077192085,1988.6269,162.903,136.1,282.08,C9H18O2,nonanoic acid,112-05-0,284.15,Yaw
CCCCCCC(C)C(=O)O,2,4.717926407719209,2050.9032,188.232,122.57,276.1,C9H18O2,2-methyloctanoic acid,3004-93-1,259.5087558668644,ML