smiles,code,A [log10(atm)],B [C],C [C],TMIN [C],TMAX [C],FORMULA,NAME,CAS No,mp [K],mp_type
C=CCC(Br)CCCCC,2,5.367726407719209,2145.2861,195.071,100.89,228.34,C9H17Br,4-bromo-1-nonene,---,226.84009939213544,ML
C=CCCC(Br)CCCC,2,5.367726407719209,2145.2861,195.071,100.89,228.34,C9H17Br,5-bromo-1-nonene,---,226.65778401363767,ML
C=CCCCC(Br)CCC,2,5.367726407719209,2145.2861,195.071,100.89,228.34,C9H17Br,6-bromo-1-nonene,---,232.16813608491398,ML
C=CCCCCC(Br)CC,2,5.367726407719209,2145.2861,195.071,100.89,228.34,C9H17Br,7-bromo-1-nonene,---,223.28367263993755,ML
C=CCCCCCC(C)Br,2,5.367726407719209,2145.2861,195.071,100.89,228.34,C9H17Br,8-bromo-1-nonene,---,218.7158695732478,ML
C=CCCCCCCCBr,2,5.367726407719209,2145.2861,195.071,100.89,228.34,C9H17Br,9-bromo-1-nonene,---,228.7650337072952,ML
CCCCCCC=CCBr,2,5.367726407719209,2145.2861,195.071,100.89,228.34,C9H17Br,1-bromo-2-nonene,---,240.01292253586095,ML
CCCCCCC=C(C)Br,2,5.367726407719209,2145.2861,195.071,100.89,228.34,C9H17Br,2-bromo-2-nonene,---,229.3816725153658,ML
CC=C(Br)CCCCCC,2,5.367726407719209,2145.2861,195.071,100.89,228.34,C9H17Br,3-bromo-2-nonene,---,221.27631366278396,ML
CC=CC(Br)CCCCC,2,5.367726407719209,2145.2861,195.071,100.89,228.34,C9H17Br,4-bromo-2-nonene,---,231.38524078325065,ML
CC=CCC(Br)CCCC,2,5.367726407719209,2145.2861,195.071,100.89,228.34,C9H17Br,5-bromo-2-nonene,---,227.11969429657094,ML
CC=CCCC(Br)CCC,2,5.367726407719209,2145.2861,195.071,100.89,228.34,C9H17Br,6-bromo-2-nonene,---,227.67543655316186,ML
CC=CCCCC(Br)CC,2,5.367726407719209,2145.2861,195.071,100.89,228.34,C9H17Br,7-bromo-2-nonene,---,227.61527049179867,ML
CC=CCCCCC(C)Br,2,5.367726407719209,2145.2861,195.071,100.89,228.34,C9H17Br,8-bromo-2-nonene,---,226.87690412800112,ML
CC=CCCCCCCBr,2,5.367726407719209,2145.2861,195.071,100.89,228.34,C9H17Br,9-bromo-2-nonene,---,235.63248716143292,ML
CCCCCCCCC(Br)(Br)Br,2,4.814656407719209,2236.0762,173.498,160.47,321.91,C9H17Br3,"1,1,1-tribromononane",62127-66-6,295.8216214524043,ML
CCCCCCCC=CCl,2,4.093856407719208,1698.9339,200.186,84.17,247.75,C9H17Cl,1-chloro-1-nonene,---,227.93155159690863,ML
CCCCCCC/C=C\Cl,2,4.093856407719208,1698.9339,200.186,84.17,247.75,C9H17Cl,cis-1-chloro-1-nonene,66688-72-0,224.35021285217394,ML
CCCCCCC/C=C/Cl,2,4.093856407719208,1698.9339,200.186,84.17,247.75,C9H17Cl,trans-1-chloro-1-nonene,66688-73-1,219.28802381142575,ML
C=C(Cl)CCCCCCC,2,4.110196407719209,1705.1446,200.047,84.57,247.6,C9H17Cl,2-chloro-1-nonene,---,218.58868832716053,ML
C=CC(Cl)CCCCCC,2,4.126636407719209,1711.3925,199.908,84.97,247.44,C9H17Cl,3-chloro-1-nonene,---,233.6792070371405,ML
C=CCC(Cl)CCCCC,2,4.143186407719209,1717.678,199.769,85.37,247.29,C9H17Cl,4-chloro-1-nonene,---,235.65084446549545,ML
C=CCCC(Cl)CCCC,2,4.159826407719208,1724.0014,199.63,85.77,247.14,C9H17Cl,5-chloro-1-nonene,---,232.9878692779861,ML
C=CCCCC(Cl)CCC,2,4.1765764077192085,1730.3631,199.491,86.17,246.99,C9H17Cl,6-chloro-1-nonene,---,234.07877693574974,ML
C=CCCCCC(Cl)CC,2,4.193436407719209,1736.7633,199.352,86.57,246.84,C9H17Cl,7-chloro-1-nonene,---,228.18199655620163,ML
C=CCCCCCC(C)Cl,2,4.210396407719209,1743.2026,199.213,86.97,246.69,C9H17Cl,8-chloro-1-nonene,---,225.61104268823593,ML
C=CCCCCCCCCl,2,4.227466407719208,1749.6812,199.074,87.37,246.54,C9H17Cl,9-chloro-1-nonene,---,230.83720417789718,ML
CCCCCCC=CCCl,2,4.2446364077192085,1756.1996,198.935,87.77,246.39,C9H17Cl,1-chloro-2-nonene,---,235.37436487753038,ML
CCCCCCC=C(C)Cl,2,4.126636407719209,1711.3925,199.908,84.97,247.44,C9H17Cl,2-chloro-2-nonene,---,229.0480159472679,ML
CC=C(Cl)CCCCCC,2,4.143186407719209,1717.678,199.769,85.37,247.29,C9H17Cl,3-chloro-2-nonene,---,226.14286315277434,ML
CC=CC(Cl)CCCCC,2,4.159826407719208,1724.0014,199.63,85.77,247.14,C9H17Cl,4-chloro-2-nonene,---,232.28693073055175,ML
CC=CCC(Cl)CCCC,2,4.1765764077192085,1730.3631,199.491,86.17,246.99,C9H17Cl,5-chloro-2-nonene,---,231.86942607405993,ML
CC=CCCC(Cl)CCC,2,4.193436407719209,1736.7633,199.352,86.57,246.84,C9H17Cl,6-chloro-2-nonene,---,232.17758588884476,ML
CC=CCCCC(Cl)CC,2,4.210396407719209,1743.2026,199.213,86.97,246.69,C9H17Cl,7-chloro-2-nonene,---,230.93448304851574,ML
CC=CCCCCC(C)Cl,2,4.227466407719208,1749.6812,199.074,87.37,246.54,C9H17Cl,8-chloro-2-nonene,---,230.07075644824815,ML
CC=CCCCCCCCl,2,4.2446364077192085,1756.1996,198.935,87.77,246.39,C9H17Cl,9-chloro-2-nonene,---,228.3945576293247,ML
ClCCCC1CCCCC1,2,4.581146407719209,1883.7103,196.378,95.13,243.73,C9H17Cl,(3-chloropropyl)cyclohexane,1124-62-5,220.35,Yaw
CCCCCCCCC(Cl)(Cl)Cl,2,4.170806407719208,1853.6247,188.232,118.07,290.77,C9H17Cl3,"1,1,1-trichlorononane",1071-84-7,280.6173545440434,ML
CCCCCCCC=CF,2,3.907486407719208,1548.4873,210.75,56.77,218.62,C9H17F,1-fluoro-1-nonene,---,211.48131738347547,ML
CCCCCCC/C=C\F,2,3.907486407719208,1548.4873,210.75,56.77,218.62,C9H17F,cis-1-fluoro-1-nonene,66688-74-2,204.6983352769023,ML
CCCCCCC/C=C/F,2,3.907486407719208,1548.4873,210.75,56.77,218.62,C9H17F,trans-1-fluoro-1-nonene,66688-75-3,209.45321620881415,ML
C=C(F)CCCCCCC,2,3.923486407719208,1554.2826,210.611,57.17,218.46,C9H17F,2-fluoro-1-nonene,---,201.57563246622172,ML
C=CC(F)CCCCCC,2,3.939586407719209,1560.113,210.472,57.57,218.3,C9H17F,3-fluoro-1-nonene,---,203.0347481808857,ML
C=CCC(F)CCCCC,2,3.955786407719208,1565.979,210.333,57.97,218.14,C9H17F,4-fluoro-1-nonene,---,207.5713633097349,ML
C=CCCC(F)CCCC,2,3.9720864077192086,1571.8807,210.194,58.37,217.99,C9H17F,5-fluoro-1-nonene,---,204.52080357718287,ML
C=CCCCC(F)CCC,2,3.988496407719208,1577.8186,210.055,58.77,217.83,C9H17F,6-fluoro-1-nonene,---,208.56004538891696,ML
C=CCCCCC(F)CC,2,4.0050064077192085,1583.7931,209.916,59.17,217.68,C9H17F,7-fluoro-1-nonene,---,205.2740772433274,ML
C=CCCCCCC(C)F,2,4.0216164077192085,1589.8044,209.777,59.57,217.52,C9H17F,8-fluoro-1-nonene,---,204.57373540512154,ML
C=CCCCCCCCF,2,4.038336407719209,1595.8529,209.638,59.97,217.37,C9H17F,9-fluoro-1-nonene,---,213.72977556074292,ML
CCCCCCC=CCF,2,4.055166407719208,1601.939,209.499,60.37,217.21,C9H17F,1-fluoro-2-nonene,---,210.95978861030187,ML
CCCCCCC=C(C)F,2,4.072106407719208,1608.063,209.36,60.77,217.06,C9H17F,2-fluoro-2-nonene,---,199.5803198394251,ML
CC=C(F)CCCCCC,2,4.089146407719209,1614.2253,209.221,61.17,216.91,C9H17F,3-fluoro-2-nonene,---,198.5150004710448,ML
CC=CC(F)CCCCC,2,4.106296407719209,1620.4262,209.082,61.57,216.76,C9H17F,4-fluoro-2-nonene,---,201.8471431540324,ML
CC=CCC(F)CCCC,2,4.123566407719209,1626.6662,208.943,61.97,216.6,C9H17F,5-fluoro-2-nonene,---,201.43933079835816,ML
CC=CCCC(F)CCC,2,4.140946407719208,1632.9457,208.804,62.37,216.45,C9H17F,6-fluoro-2-nonene,---,201.9582633281402,ML
CC=CCCCC(F)CC,2,4.158436407719209,1639.2649,208.665,62.77,216.3,C9H17F,7-fluoro-2-nonene,---,206.68165003298157,ML
CC=CCCCCC(C)F,2,4.1760364077192085,1645.6244,208.526,63.17,216.15,C9H17F,8-fluoro-2-nonene,---,203.49657442872046,ML
CC=CCCCCCCF,2,4.193756407719208,1652.0244,208.387,63.57,216.0,C9H17F,9-fluoro-2-nonene,---,211.0637701055225,ML
CCCCCCCCC(F)(F)F,3,3.610046407719208,1395.8936,216.55,37.67,205.3,C9H17F3,"1,1,1-trifluorononane",55757-34-1,224.74252401844115,ML
CCCCCCCC=CI,2,6.049386407719208,2415.0485,191.568,112.97,228.56,C9H17I,1-iodo-1-nonene,---,254.20636524944135,ML
CCCCCCC/C=C\I,2,6.049386407719208,2415.0485,191.568,112.97,228.56,C9H17I,cis-1-iodo-1-nonene,27370-94-1,244.54680845544382,ML
CCCCCCC/C=C/I,2,6.049386407719208,2415.0485,191.568,112.97,228.56,C9H17I,trans-1-iodo-1-nonene,26143-08-8,247.92660844922338,ML
C=C(I)CCCCCCC,2,6.061696407719209,2419.6287,191.513,113.13,228.51,C9H17I,2-iodo-1-nonene,---,234.1514358721375,ML
C=CC(I)CCCCCC,2,6.074056407719208,2424.2242,191.457,113.29,228.47,C9H17I,3-iodo-1-nonene,---,249.0539810108236,ML
C=CCC(I)CCCCC,2,6.086456407719208,2428.8351,191.402,113.45,228.42,C9H17I,4-iodo-1-nonene,---,238.04424531921111,ML
C=CCCC(I)CCCC,2,6.098906407719209,2433.4615,191.346,113.61,228.37,C9H17I,5-iodo-1-nonene,---,240.21751439135252,ML
C=CCCCC(I)CCC,2,6.111386407719209,2438.1033,191.29,113.77,228.32,C9H17I,6-iodo-1-nonene,---,244.35130691764797,ML
C=CCCCCC(I)CC,2,6.123916407719209,2442.7609,191.235,113.93,228.28,C9H17I,7-iodo-1-nonene,---,239.22842953057307,ML
C=CCCCCCC(C)I,2,6.136486407719209,2447.4341,191.179,114.09,228.23,C9H17I,8-iodo-1-nonene,---,240.90416626546175,ML
C=CCCCCCCCI,2,6.149096407719208,2452.123,191.124,114.25,228.18,C9H17I,9-iodo-1-nonene,---,251.42832623480308,ML
CCCCCCC=CCI,2,6.161756407719208,2456.8279,191.068,114.41,228.13,C9H17I,1-iodo-2-nonene,---,259.97151241388565,ML
CCCCCCC=C(C)I,2,6.174456407719209,2461.5486,191.012,114.57,228.09,C9H17I,2-iodo-2-nonene,---,255.49044613370427,ML
CC=C(I)CCCCCC,2,6.187206407719209,2466.2854,190.957,114.73,228.04,C9H17I,3-iodo-2-nonene,---,243.331501841521,ML
CC=CC(I)CCCCC,2,6.199996407719208,2471.0383,190.901,114.89,227.99,C9H17I,4-iodo-2-nonene,---,248.389344799032,ML
CC=CCC(I)CCCC,2,6.212826407719209,2475.8074,190.846,115.05,227.95,C9H17I,5-iodo-2-nonene,---,239.92679747913607,ML
CC=CCCC(I)CCC,2,6.225706407719208,2480.5928,190.79,115.21,227.9,C9H17I,6-iodo-2-nonene,---,238.19720746934493,ML
CC=CCCCC(I)CC,2,6.2386264077192095,2485.3945,190.734,115.37,227.85,C9H17I,7-iodo-2-nonene,---,242.27443416373458,ML
CC=CCCCCC(C)I,2,6.251586407719209,2490.2127,190.679,115.53,227.81,C9H17I,8-iodo-2-nonene,---,245.18942663082217,ML
CC=CCCCCCCI,2,6.264606407719208,2495.0473,190.623,115.69,227.76,C9H17I,9-iodo-2-nonene,---,254.92939482348584,ML
CCCCCCCCC#N,"1,2",4.357696407719208,1822.0887,193.681,98.39,255.48,C9H17N,nonanenitrile,2243-27-8,238.95,Yaw
[C-]#[N+]C(C)(C)CC(C)(C)C,3,3.492076407719209,1486.2538,205.371,71.25,260.39,C9H17N,"1,1,3,3-tetramethylbutyl isocyanide",14542-93-9,277.93651939999705,ML
CCCCCCCCN=C=O,2,4.223316407719208,1769.4534,199.908,89.97,251.22,C9H17NO,octyl isocyanate,3158-26-7,276.2635767308909,ML
CCOC(=O)[C@H](CCSC)NC(C)=O,3,7.285486407719208,4264.0,273.15,158.85,337.35,C9H17NO3S,N-acetyl-(+-)-methionine ethyl ester,33280-93-2,324.33173540567645,ML
CCNc1nc(NC(C)C)nc(SC)n1,3,9.030286407719208,5270.0,273.15,209.84,330.57,C9H17N5S,ametryn,834-12-8,361.15,Yaw
CCCCC1CCCC1,"1,2",4.193366407719209,1555.0987,214.097,41.92,185.43,C9H18,butylcyclopentane,2040-95-1,165.18,Yaw
CC(C)CC1CCCC1,"1,2",4.221406407719209,1519.094,211.885,37.06,175.6,C9H18,isobutylcyclopentane,3788-32-7,157.93,Yaw
CCC(C)C1CCCC1,"1,2",4.068056407719209,1481.2773,209.674,39.33,183.55,C9H18,sec-butylcyclopentane,4850-32-2,168.52,Yaw
CC(C)(C)C1CCCC1,"1,2",3.962616407719208,1411.7947,211.479,30.13,174.09,C9H18,tert-butylcyclopentane,3875-52-3,177.35,Yaw
CCCC1(C)CCCC1,2,3.953406407719209,1425.924,211.26,33.15,179.15,C9H18,1-methyl-1-propylcyclopentane,16631-63-3,168.52,Yaw
CCC[C@H]1CCC[C@H]1C,2,4.258576407719208,1578.9039,221.336,35.84,177.62,C9H18,1-methyl-cis-2-propylcyclopentane,932-43-4,169.15,Yaw
CCC[C@@H]1CCC[C@H]1C,2,3.956206407719209,1426.6579,211.19,33.23,179.12,C9H18,1-methyl-trans-2-propylcyclopentane,932-44-5,153.15,Yaw
CCC[C@@H]1CC[C@H](C)C1,2,4.012186407719208,1445.6,210.88,34.43,178.65,C9H18,1-methyl-cis-3-propylcyclopentane,2443-04-1,168.52,Yaw
CCC[C@H]1CC[C@H](C)C1,2,4.012186407719208,1445.6,210.88,34.43,178.65,C9H18,1-methyl-trans-3-propylcyclopentane,2443-03-0,168.52,Yaw
CC(C)C1(C)CCCC1,2,3.9689664077192086,1430.0292,210.88,33.58,178.99,C9H18,1-methyl-1-isopropylcyclopentane,61828-00-0,168.52,Yaw
CC(C)[C@H]1CCC[C@H]1C,2,3.959076407719208,1426.4632,210.88,33.38,179.07,C9H18,1-methyl-cis-2-isopropylcyclopentane,61868-01-7,168.52,Yaw
CC(C)[C@@H]1CCC[C@H]1C,2,3.7479164077192086,1363.8588,214.475,27.83,181.2,C9H18,1-methyl-trans-2-isopropylcyclopentane,61828-01-1,168.52,Yaw
CC(C)[C@@H]1CC[C@H](C)C1,2,3.762946407719209,1360.0889,212.02,28.97,180.85,C9H18,1-methyl-cis-3-isopropylcyclopentane,61828-02-2,168.52,Yaw
CC(C)[C@H]1CC[C@H](C)C1,2,3.762946407719209,1360.0889,212.02,28.97,180.85,C9H18,1-methyl-trans-3-isopropylcyclopentane,61828-03-3,168.52,Yaw
CCC1(CC)CCCC1,2,4.1107664077192085,1479.1654,210.405,36.47,177.85,C9H18,"1,1-diethylcyclopentane",2721-38-2,177.55,Yaw
CCC1CCC(CC)C1,2,3.939696407719208,1433.2104,214.364,31.87,179.52,C9H18,"1,3-diethylcyclopentane",19398-75-5,168.52,Yaw
CCC1CCCC1(C)C,2,3.638946407719208,1318.036,212.78,26.0,182.09,C9H18,"1,1-dimethyl-2-ethylcyclopentane",54549-80-3,168.52,Yaw
CCC1CCC(C)(C)C1,2,3.521766407719209,1278.269,213.54,23.06,183.35,C9H18,"1,1-dimethyl-3-ethylcyclopentane",62016-61-9,168.52,Yaw
CC1(C)CCCC1(C)C,2,3.4498964077192085,1252.8399,213.73,21.29,184.14,C9H18,"1,1,2,2-tetramethylcyclopentane",52688-89-8,168.52,Yaw
CC1(C)CCC(C)(C)C1,2,3.1220964077192086,1167.8148,224.626,8.8,189.34,C9H18,"1,1,3,3-tetramethylcyclopentane",50876-33-0,184.86,Yaw
CC(C)C1CCCC1C,2,3.7047464077192087,1354.9476,216.31,26.27,181.77,C9H18,1-methyl-2-isopropylcyclopentane,89223-57-4,168.52,Yaw
CCCC1CCCCC1,"1,2",4.077776407719209,1537.0084,221.073,36.88,185.89,C9H18,propylcyclohexane,1678-92-8,178.2,Yaw
CC(C)C1CCCCC1,"1,2",4.291476407719209,1626.4557,226.147,37.36,181.44,C9H18,isopropylcyclohexane,696-29-7,183.76,Yaw
CCC1(C)CCCCC1,"1,2",4.169706407719208,1593.2492,230.051,33.27,181.78,C9H18,1-methyl-1-ethylcyclohexane,4926-90-3,195.88,Yaw
CC[C@H]1CCCC[C@H]1C,"1,2",3.987176407719208,1439.4951,205.051,40.26,185.46,C9H18,1-methyl-cis-2-ethylcyclohexane,4923-77-7,195.88,Yaw
CC[C@@H]1CCCC[C@H]1C,"1,2",4.010436407719209,1428.7954,205.419,37.11,179.76,C9H18,1-methyl-trans-2-ethylcyclohexane,4923-78-8,195.88,Yaw
CC[C@@H]1CCC[C@H](C)C1,"1,2",3.990006407719209,1437.4627,211.416,33.43,178.25,C9H18,1-methyl-cis-3-ethylcyclohexane,19489-10-2,195.88,Yaw
CC[C@H]1CCC[C@H](C)C1,"1,2",4.048276407719209,1422.3818,202.805,37.09,176.78,C9H18,1-methyl-trans-3-ethylcyclohexane,4926-76-5,195.88,Yaw
CC[C@H]1CC[C@@H](C)CC1,"1,2",3.8299364077192086,1321.272,192.336,39.03,182.08,C9H18,1-methyl-cis-4-ethylcyclohexane,4926-78-7,195.88,Yaw
CC[C@H]1CC[C@H](C)CC1,"1,2",4.013176407719208,1463.4513,215.612,32.68,178.62,C9H18,1-methyl-trans-4-ethylcyclohexane,6236-88-0,192.35,Yaw
CC1CCCCC1(C)C,"1,2",4.046496407719209,1501.4515,225.06,28.25,175.81,C9H18,"1,1,2-trimethylcyclohexane",7094-26-0,244.15,Yaw
CC1CCCC(C)(C)C1,"1,2",3.9832764077192087,1408.5781,216.773,23.43,165.76,C9H18,"1,1,3-trimethylcyclohexane",3073-66-3,207.4,Yaw
CC1CCC(C)(C)CC1,"1,2",4.080826407719209,1488.327,229.663,19.99,164.1,C9H18,"1,1,4-trimethylcyclohexane",7094-27-1,195.88,Yaw
CC1CCCC(C)C1C,"1,2",3.899956407719209,1433.9672,216.588,31.47,181.86,C9H18,"1,2,3-trimethylcyclohexane",1678-97-3,195.88,Yaw
CC1[C@@H](C)CCC[C@@H]1C,"1,2",4.237186407719209,1710.3754,252.409,27.16,182.12,C9H18,"1,cis-2,trans-3-trimethylcyclohexane",7667-55-2,187.45,Yaw
CC1CCC(C)C(C)C1,"1,2",4.147726407719208,1495.1145,216.616,31.39,172.06,C9H18,"1,2,4-trimethylcyclohexane, isomers",2234-75-5,186.85,Yaw
C[C@H]1C[C@H](C)CC[C@H]1C,"1,2",4.467826407719208,1761.2377,252.355,25.07,170.33,C9H18,"1,cis-2,trans-4-trimethylcyclohexane",7667-58-5,181.35,Yaw
CC1CC(C)CC(C)C1,"1,2",4.215836407719209,1499.1169,217.742,28.15,165.19,C9H18,"1,3,5,-trimethylcyclohexane",1839-63-0,195.88,Yaw
CCC1CCCCC1C,"1,2",4.275456407719209,1560.3732,213.711,39.75,178.89,C9H18,1-ethyl-2-methylcyclohexane,3728-54-9,195.88,Yaw
C1CCCCCCCC1,3,4.655076407719209,1743.4483,205.104,61.65,195.32,C9H18,cyclononane,293-55-0,284.15,Yaw
C=CCCCCCCC,"1,2",4.2667364077192085,1551.5581,217.79,34.6,173.45,C9H18,1-nonene,124-11-8,191.91,Yaw
CC=CCCCCCC,"1,2",5.265766407719209,1900.6048,211.056,54.89,171.76,C9H18,2-nonene,2216-38-8,184.01,Yaw
CCC=CCCCCC,"1,2",5.131876407719208,1847.426,212.391,51.05,170.03,C9H18,3-nonene,20063-77-8,184.01,Yaw
CCCC=CCCCC,"1,2",4.515196407719209,1631.5836,215.504,39.59,171.66,C9H18,4-nonene,2198-23-4,184.01,Yaw
C=C(C)CCCCCC,"1,2",4.251786407719209,1545.6705,219.684,32.36,171.55,C9H18,2-methyl-1-octene,4588-18-5,195.47,Yaw
C=CC(C)CCCCC,2,4.931856407719208,1769.4847,214.364,45.37,167.75,C9H18,3-methyl-1-octene,---,184.01,Yaw
C=CCC(C)CCCC,2,4.931856407719208,1769.4847,214.364,45.37,167.75,C9H18,4-methyl-1-octene,---,184.01,Yaw
C=CCCC(C)CCC,2,4.931856407719208,1769.4847,214.364,45.37,167.75,C9H18,5-methyl-1-octene,---,184.01,Yaw
C=CCCCC(C)CC,2,4.931856407719208,1769.4847,214.364,45.37,167.75,C9H18,6-methyl-1-octene,---,184.01,Yaw
CC=C(C)CCCCC,2,4.537096407719209,1634.1559,215.754,38.87,170.02,C9H18,3-methyl-2-octene,113426-22-5,184.01,Yaw
CC=CC(C)CCCC,2,4.931856407719208,1769.4847,214.364,45.37,167.75,C9H18,4-methyl-2-octene,---,184.01,Yaw
CC=CCC(C)CCC,2,4.931856407719208,1769.4847,214.364,45.37,167.75,C9H18,5-methyl-2-octene,---,184.01,Yaw
CC=CCCC(C)CC,2,4.931856407719208,1769.4847,214.364,45.37,167.75,C9H18,6-methyl-2-octene,---,184.01,Yaw
CC=CCCCC(C)C,2,4.931856407719208,1769.4847,214.364,45.37,167.75,C9H18,7-methyl-2-octene,---,184.01,Yaw
CCC=CC(C)CCC,2,4.931856407719208,1769.4847,214.364,45.37,167.75,C9H18,5-methyl-3-octene,---,184.01,Yaw
CCC=CCC(C)CC,2,4.931856407719208,1769.4847,214.364,45.37,167.75,C9H18,6-methyl-3-octene,---,184.01,Yaw
CCC=CCCC(C)C,2,4.408946407719209,1591.6753,216.588,36.47,170.88,C9H18,7-methyl-3-octene,86668-33-9,184.01,Yaw
CCCC=CCC(C)C,2,4.286366407719209,1550.998,217.422,34.07,171.75,C9H18,2-methyl-4-octene,64501-77-5,184.01,Yaw
C=CC(C)(C)CCCC,2,4.602286407719209,1660.1932,216.31,39.77,169.67,C9H18,"3,3-dimethyl-1-heptene",---,184.01,Yaw
C=CC(C)C(C)CCC,2,4.602286407719209,1660.1932,216.31,39.77,169.67,C9H18,"3,4-dimethyl-1-heptene",---,184.01,Yaw
C=CC(C)CC(C)CC,2,4.602286407719209,1660.1932,216.31,39.77,169.67,C9H18,"3,5-dimethyl-1-heptene",---,184.01,Yaw
C=CC(C)CCC(C)C,2,4.602286407719209,1660.1932,216.31,39.77,169.67,C9H18,"3,6-dimethyl-1-heptene",---,184.01,Yaw
CCCCC(C)=C(C)C,"1,2",4.514676407719208,1629.1142,215.699,39.03,170.93,C9H18,"2,3-dimethyl-2-heptene",3074-64-4,164.65,Yaw
CC=CC(C)(C)CCC,2,4.602286407719209,1660.1932,216.31,39.77,169.67,C9H18,"4,4-dimethyl-2-heptene",---,184.01,Yaw
CC=CC(C)C(C)CC,2,4.602286407719209,1660.1932,216.31,39.77,169.67,C9H18,"4,5-dimethyl-2-heptene",---,184.01,Yaw
CC=CC(C)CC(C)C,2,4.602286407719209,1660.1932,216.31,39.77,169.67,C9H18,"4,6-dimethyl-2-heptene",---,184.01,Yaw
CC(C)C=CCC(C)C,"1,2",4.847716407719209,1631.2351,222.246,20.19,136.53,C9H18,"2,6-dimethyl-3-heptene",2738-18-3,184.01,Yaw
CCC=CC(C)(C)CC,2,4.602286407719209,1660.1932,216.31,39.77,169.67,C9H18,"5,5-dimethyl-3-heptene",---,184.01,Yaw
C=CC(CC)CCCC,2,4.931856407719208,1769.4847,214.364,45.37,167.75,C9H18,3-ethyl-1-heptene,---,184.01,Yaw
C=CCC(CC)CCC,2,4.931856407719208,1769.4847,214.364,45.37,167.75,C9H18,4-ethyl-1-heptene,---,184.01,Yaw
C=CCCC(CC)CC,2,4.931856407719208,1769.4847,214.364,45.37,167.75,C9H18,5-ethyl-1-heptene,---,184.01,Yaw
C[C@H]1CC[C@@H](C)C1(C)C,2,3.331076407719209,1194.4325,209.15,20.02,185.05,C9H18,"cis-1,1,2,5-tetramethyl-cyclopentane",18938-68-6,168.52,Yaw
CCCCCCCCC(Br)Br,2,4.856696407719209,2143.8627,183.228,134.97,287.36,C9H18Br2,"1,1-dibromononane",62168-27-8,281.25182951725174,ML
CCCCCCCC(Br)CBr,2,4.896446407719209,2160.0506,182.95,135.77,287.09,C9H18Br2,"1,2-dibromononane",73642-91-8,286.5021900562355,ML
CCCCCCC(Br)CCBr,2,4.936726407719209,2176.447,182.672,136.57,286.83,C9H18Br2,"1,3-dibromononane",---,285.6038136749298,ML
CCCCCC(Br)CCCBr,2,4.977536407719208,2193.056,182.394,137.37,286.56,C9H18Br2,"1,4-dibromononane",---,284.59665092438047,ML
CCCCC(Br)CCCCBr,2,5.018896407719208,2209.8818,182.116,138.17,286.29,C9H18Br2,"1,5-dibromononane",---,284.55875101697217,ML
CCCC(Br)CCCCCBr,2,5.060806407719209,2226.9289,181.838,138.97,286.03,C9H18Br2,"1,6-dibromononane",---,285.48355685483125,ML
CCC(Br)CCCCCCBr,2,5.103286407719208,2244.2017,181.56,139.77,285.76,C9H18Br2,"1,7-dibromononane",---,285.11041149347585,ML
CC(Br)CCCCCCCBr,2,5.146336407719209,2261.7047,181.282,140.57,285.5,C9H18Br2,"1,8-dibromononane",---,285.4515421225021,ML
BrCCCCCCCCCBr,"1,2",4.176376407719209,1952.6816,181.004,141.37,322.87,C9H18Br2,"1,9-dibromononane",4549-33-1,271.15,Yaw
CCCCCCCC(C)(Br)Br,2,4.485796407719208,1992.6102,186.008,126.97,290.15,C9H18Br2,"2,2-dibromononane",---,278.78623006725076,ML
CCCCCCC(Br)C(C)Br,2,4.520836407719209,2006.9193,185.73,127.77,289.86,C9H18Br2,"2,3-dibromononane",---,279.7144277683135,ML