smiles,code,A [log10(atm)],B [C],C [C],TMIN [C],TMAX [C],FORMULA,NAME,CAS No,mp [K],mp_type
CC(N)CO,"1,2",4.991106407719209,1907.1171,207.553,69.97,199.08,C3H9NO,"2-amino-1-propanol, (±)",6168-72-5,286.52,Yaw
NCC(O)CO,"1,2",5.943896407719208,2656.3106,182.547,156.93,288.32,C3H9NO2,"(±)-3-amino-1,2-propanediol",616-30-8,315.07405823853463,ML
CCC(N)CO,3,5.680366407719209,2112.2171,206.58,72.77,186.07,C4H11NO,"2-amino-1-butanol, (±)-",13054-87-0,272.15,Yaw
CC(C)C(C)O,2,6.601466407719208,2098.2465,224.678,22.69,108.35,C5H12O,"3-methyl-2-butanol, (±)",70116-68-6,221.71,Yaw
CC(C)C(N)CO,3,3.823656407719208,1546.348,210.987,60.09,227.99,C5H13NO,"2-amino-3-methyl-1-butanol, (±)",16369-05-4,302.99,Yaw
CC1CCCCN1,2,4.740936407719208,1559.6222,223.26,-2.5,128.01,C6H13N,"2-methylpiperidine, (±)",3000-79-1,270.65,Yaw
CC1CCCNC1,2,5.150466407719209,1683.6066,221.175,18.27,126.0,C6H13N,"3-methylpiperidine, (±)",53152-98-0,249.15,Yaw
CC(C)CC(N)CO,3,4.217806407719209,1770.5032,200.742,89.57,251.29,C6H15NO,"2-amino-4-methyl-1-pentanol, (±)",16369-17-8,317.15,Yaw
CC(CCC(=O)O)CC(=O)O,3,5.694476407719209,2801.6045,163.185,206.65,356.26,C7H12O4,"3-methylhexanedioic acid, (±)",81177-02-8,370.15,Yaw
CC1CCCCN1C,2,4.034666407719208,1422.6102,220.619,19.87,160.41,C7H15N,"1,2-dimethylpiperidine, (±)",2512-81-4,218.73658073035577,ML
CCC1CCCNC1,2,5.182796407719209,1791.2713,213.642,39.95,153.29,C7H15N,"3-ethylpiperidine, (±)",59433-08-8,260.3230554608409,ML
CCN(CC)CC(C)O,3,2.739346407719209,1244.819,211.862,14.71,298.66,C7H17NO,"1-(diethylamino)-2-propanol, (±)",78738-36-0,286.65,Yaw
CC(Br)c1ccccc1,2,4.035656407719209,1632.2262,199.908,75.97,237.14,C8H9Br,"(1-bromoethyl)benzene, (±)",38661-81-3,252.66,Yaw
CC(Cl)c1ccccc1,2,4.184886407719208,1640.8326,203.3,67.21,219.17,C8H9Cl,"(1-chloroethyl)benzene, (±)",38661-82-4,231.2,Yaw
CC(N)c1ccccc1,"1,2",4.397086407719208,1711.0315,204.078,32.0,213.65,C8H11N,"alpha-methylbenzylamine, (±)",618-36-0,305.15,Yaw
CC1CCC(C)C(=O)C1,2,4.1773964077192085,1598.2673,208.248,55.57,204.06,C8H14O,"trans-2,5-dimethylcyclohexanone, (±)",66395-23-1,282.4,Yaw
CC(C)CCCC(C)N,2,4.2137364077192085,1611.0583,212.974,48.89,198.78,C8H19N,"6-methyl-2-heptanamine, (±)",5984-58-7,322.04,Yaw
CCCCCCC(C)N,"1,2",4.797296407719209,1796.693,210.472,50.56,189.12,C8H19N,"2-octanamine, (±)",44855-57-4,323.71,Yaw