smiles,code,A [log10(atm)],B [C],C [C],TMIN [C],TMAX [C],FORMULA,NAME,CAS No,mp [K],mp_type
CC(Cl)C(F)(F)F,2,4.714266407719209,1351.8373,243.527,-38.55,65.27,C3H4ClF3,chlorotrifluoropropane,134237-44-8,166.0222696286307,ML
O=S(OCCCl)C(F)(F)F,3,4.919286407719208,2117.0,273.15,38.17,185.25,C3H4ClF3O2S,"trifluoromethane-sulfinic acid, 2-chloroethyl ester",61915-99-9,263.6100351459917,ML
C=C(Cl)CCl,"1,2",4.536976407719209,1470.7203,230.113,-0.95,117.09,C3H4Cl2,"2,3-dichloropropene",78-88-6,206.2880882081091,ML
CC=C(Cl)Cl,"1,2",4.555616407719208,1418.3783,234.797,-14.43,98.58,C3H4Cl2,"1,1-dichloropropene",563-58-6,191.24944299028172,ML
ClC=CCCl,3,5.487106407719208,1730.5683,227.069,7.81,106.63,C3H4Cl2,"cis-1,3-dichloropropene",10061-01-5,197.46048968380057,ML
C=CC(Cl)Cl,"1,2",4.685676407719209,1474.1176,232.601,-8.11,106.78,C3H4Cl2,"3,3-dichloropropene",563-57-5,217.39831177688757,ML
CC(Cl)=CCl,3,3.973056407719208,1285.4186,235.214,-15.63,114.84,C3H4Cl2,"1,2-dichloropropene",563-54-2,179.01870167831348,ML
CC(F)C(F)(Cl)Cl,3,6.5070464077192085,1827.4628,236.66,-18.79,57.81,C3H4Cl2F2,"1,1-dichloro-1,2-difluoropropane",---,174.68603936546333,ML
CC(F)(F)C(Cl)Cl,3,6.5070464077192085,1827.4628,236.66,-18.79,57.81,C3H4Cl2F2,"1,1-dichloro-2,2-difluoropropane",1112-01-2,191.523425706476,ML
CC(Cl)C(F)(F)Cl,3,6.5070464077192085,1827.4628,236.66,-18.79,57.81,C3H4Cl2F2,"1,2-dichloro-1,1-difluoropropane",7126-15-0,176.99801205678833,ML
FC(F)(CCl)CCl,3,6.5070464077192085,1827.4628,236.66,-18.79,57.81,C3H4Cl2F2,"1,3-dichloro-2,2-difluoropropane",1112-36-3,220.0968507400108,ML
COC(F)(F)C(Cl)Cl,"1,2",4.196746407719209,1336.58,213.48,5.85,129.61,C3H4Cl2F2O,methoxyflurane,76-38-0,238.25,Yaw
CC(=O)C(Cl)Cl,"1,2",3.755066407719209,1283.9828,221.883,1.0,149.85,C3H4Cl2O,"1,1-dichloroacetone",513-88-2,218.12942559839027,ML
O=C(CCl)CCl,"1,2",4.872106407719208,1936.6612,224.05,62.74,199.63,C3H4Cl2O,"1,3-dichloroacetone",534-07-6,318.15,Yaw
COC(=O)C(Cl)Cl,"1,2",4.4112564077192085,1551.0098,208.703,37.8,168.65,C3H4Cl2O2,methyl dichloroacetate,116-54-1,221.25,Yaw
CC(Cl)C(F)(Cl)Cl,2,4.466966407719209,1523.6607,223.26,16.77,142.7,C3H4Cl3F,trichlorofluoropropane,134190-51-5,203.26843832544554,ML
N#CCC[Si](Cl)(Cl)Cl,3,3.2862764077192086,1172.73,139.54,68.85,253.3,C3H4Cl3NSi,3-trichlorosilylpropionitrile,1071-22-3,307.9,Yaw
CC(Cl)C(Cl)(Cl)Cl,2,3.4978764077192084,1328.5532,210.255,36.75,205.33,C3H4Cl4,"1,1,1,2-tetrachloropropane",812-03-3,208.15,Yaw
ClCCC(Cl)(Cl)Cl,"1,2",4.266676407719209,1582.5619,211.862,45.57,187.21,C3H4Cl4,"1,1,1,3-tetrachloropropane",1070-78-6,237.74,Yaw
CC(Cl)(Cl)C(Cl)Cl,"1,2",4.341096407719209,1588.7282,212.974,42.37,182.95,C3H4Cl4,"1,1,2,2-tetrachloropropane",13116-60-4,222.95,Yaw
ClCC(Cl)C(Cl)Cl,"1,2",4.217366407719209,1630.3491,206.58,60.77,209.71,C3H4Cl4,"1,1,2,3-tetrachloropropane",18495-30-2,222.95,Yaw
ClC(Cl)CC(Cl)Cl,2,4.337216407719208,1644.8555,209.68,54.85,197.85,C3H4Cl4,"1,1,3,3-tetrachloropropane",1653-17-4,222.95,Yaw
ClCC(Cl)(Cl)CCl,"1,2",4.235286407719209,1590.4452,210.472,49.57,193.78,C3H4Cl4,"1,2,2,3-tetrachloropropane",13116-53-5,222.95,Yaw
CC=C(F)F,2,13.409456407719208,2856.0691,256.94,-70.15,-27.69,C3H4F2,"1,1-difluoro-1-propene",430-63-7,127.88146781219804,ML
COC(=O)C(F)F,"1,2",6.102926407719208,2187.9,273.15,-0.15,103.95,C3H4F2O2,methyl difluoroacetate,433-53-4,217.94213954787438,ML
CC(F)C(F)(F)F,2,3.5178164077192084,743.5718,206.929,-69.2,24.22,C3H4F4,"1,1,1,2-tetrafluoropropane",421-48-7,142.80459762683174,ML
FCCC(F)(F)F,2,5.769866407719208,1185.4321,201.008,-46.06,48.88,C3H4F4,"1,1,1,3-tetrafluoropropane",460-36-6,163.175635212988,ML
CC(F)(F)C(F)F,2,6.679956407719208,1690.3237,248.6,-51.15,45.44,C3H4F4,"1,1,2,2-tetrafluoropropane",40723-63-5,161.29379236700973,ML
FCC(F)C(F)F,2,6.679956407719208,1690.3237,248.6,-51.15,45.44,C3H4F4,"1,1,2,3-tetrafluoropropane",---,168.19708090081517,ML
FC(F)CC(F)F,2,6.679956407719208,1690.3237,248.6,-51.15,45.44,C3H4F4,"1,1,3,3-tetrafluoropropane",---,170.73773998026297,ML
FCC(F)(F)CF,2,6.679956407719208,1690.3237,248.6,-51.15,45.44,C3H4F4,"1,2,2,3-tetrafluoropropane",813-75-2,172.07532462888324,ML
OCC(F)(F)C(F)F,"1,2",4.4544464077192085,1313.5638,185.388,21.95,130.87,C3H4F4O,"2,2,3,3-tetrafluoro-1-propanol",76-37-9,258.15,Yaw
COC(F)(F)C(F)F,"1,2",6.5625564077192085,1816.2541,240.26,-25.15,76.16,C3H4F4O,"methyl 1,1,2,2-tetrafluoroethyl ether",425-88-7,166.15,Yaw
CC(I)C(I)(I)I,3,3.567676407719208,1990.4833,154.933,210.39,454.4,C3H4I4,"1,1,1,2-tetraiodopropane",66794-31-8,377.990577392289,ML
ICCC(I)(I)I,3,3.576456407719209,1994.9441,154.811,210.75,454.25,C3H4I4,"1,1,1,3-tetraiodopropane",66794-32-9,363.7648498256047,ML
CC(I)(I)C(I)I,3,3.567676407719208,1990.4833,154.933,210.39,454.4,C3H4I4,"1,1,2,2-tetraiodopropane",66794-33-0,372.6130153095573,ML
ICC(I)C(I)I,3,3.623896407719209,2019.0391,154.158,212.63,453.46,C3H4I4,"1,1,2,3-tetraiodopropane",66794-21-6,369.49888744159006,ML
IC(I)CC(I)I,3,3.623896407719209,2019.0391,154.158,212.63,453.46,C3H4I4,"1,1,3,3-tetraiodopropane",66794-34-1,368.6163337832145,ML
ICC(I)(I)CI,3,3.576456407719209,1994.9441,154.811,210.75,454.25,C3H4I4,"1,2,2,3-tetraiodopropane",66794-20-5,360.99140211832537,ML
C=CC=O,"1,2",4.296536407719208,1300.7837,245.902,-35.33,79.66,C3H4O,acrolein,107-02-8,186.15,Yaw
C#CCO,"1,2",5.1101564077192085,1827.5576,243.282,18.13,136.74,C3H4O,propargyl alcohol,107-19-7,221.35,Yaw
C=CC(=O)O,"1,2",5.041806407719209,1843.5808,226.609,13.5,164.83,C3H4O2,acrylic acid,79-10-7,286.0,Yaw
O=C1CCO1,"1,2",3.964376407719208,1579.3476,218.335,51.86,212.79,C3H4O2,beta-propiolactone,57-57-8,239.75,Yaw
O=C1OCCO1,"1,2",4.920296407719209,2245.0133,211.926,118.17,279.16,C3H4O3,ethylene carbonate,96-49-1,309.55,Yaw
CC(=O)C(=O)O,3,12.99013640771921,4563.4413,248.318,58.55,111.32,C3H4O3,pyruvic acid,127-17-3,286.75,Yaw
O=C(O)CC(=O)O,"1,2",2.646556407719209,1507.5295,182.811,150.17,459.91,C3H4O4,malonic acid,141-82-2,407.95,Yaw
CC=CBr,"1,2",4.616756407719208,1384.0817,239.245,-26.23,81.46,C3H5Br,1-bromo-1-propene,590-14-7,157.25,Yaw
C/C=C\Br,"1,2",4.328436407719209,1274.1824,236.525,-31.32,79.85,C3H5Br,cis-1-bromo-1-propene,590-13-6,160.15,Yaw
C=C(C)Br,"1,2",4.4377664077192085,1345.7303,254.595,-41.62,70.72,C3H5Br,2-bromo-1-propene,557-93-7,147.15,Yaw
C=CCBr,"1,2",4.431466407719209,1408.6729,247.429,-24.27,93.62,C3H5Br,3-bromo-1-propene,106-95-6,153.76,Yaw
CCC(Br)(Br)Br,2,4.178276407719209,1691.4456,202.688,76.47,233.56,C3H5Br3,"1,1,1-tribromopropane",62127-61-1,289.34,Yaw
CC(Br)C(Br)Br,2,4.506826407719209,1813.1708,200.186,83.67,230.93,C3H5Br3,"1,1,2-tribromopropane",14602-62-1,289.34,Yaw
BrCCC(Br)Br,2,4.666016407719209,1872.0293,199.074,86.87,233.61,C3H5Br3,"1,1,3-tribromopropane",23511-78-6,289.34,Yaw
CC(Br)(Br)CBr,"1,2",4.5618264077192086,1795.1542,202.966,75.67,218.95,C3H5Br3,"1,2,2-tribromopropane",14476-30-3,289.34,Yaw
BrCC(Br)CBr,"1,2",4.643336407719208,1923.9826,194.304,100.6,251.58,C3H5Br3,"1,2,3-tribromopropane",96-11-7,289.34,Yaw
CC=CCl,2,4.546736407719209,1271.0811,247.905,-50.15,51.48,C3H5Cl,1-chloro-1-propene,590-21-6,135.85,Yaw
C=C(C)Cl,"1,2",4.0261664077192085,1035.3053,234.594,-59.33,43.47,C3H5Cl,2-chloro-1-propene,557-98-2,135.75,Yaw
C=CCCl,"1,2",4.001236407719208,1094.4537,228.479,-42.41,241.0,C3H5Cl,3-chloro-1-propene,107-05-1,138.65,Yaw
CC(F)(F)CCl,3,5.1496164077192095,1477.4045,240.774,-30.63,63.93,C3H5ClF2,"1-chloro-2,2-difluoropropane",420-99-5,216.95,Yaw
CCC(F)(F)Cl,3,5.1496164077192095,1477.4045,240.774,-30.63,63.93,C3H5ClF2,chlorodifluoropropane,134190-53-7,160.17766586970072,ML
FC(F)CCCl,3,5.1496164077192095,1477.4045,240.774,-30.63,63.93,C3H5ClF2,"3-chloro-1,1-difluoropropane",---,180.6411994922472,ML
FCCC(F)Cl,3,5.1496164077192095,1477.4045,240.774,-30.63,63.93,C3H5ClF2,"1-chloro-1,3-difluoropropane",---,177.36277398382478,ML
ClCC1CO1,"1,2",4.298886407719209,1432.3739,217.147,14.64,144.43,C3H5ClO,alpha-epichlorohydrin,106-89-8,215.95,Yaw
CC(=O)CCl,"1,2",5.527796407719208,2251.6373,287.28,16.64,143.51,C3H5ClO,chloroacetone,78-95-5,228.65,Yaw
COC(=O)CCl,"1,2",4.522446407719209,1554.9343,214.006,28.83,154.34,C3H5ClO2,methyl chloroacetate,96-34-4,241.03,Yaw
CCOC(=O)Cl,"1,2",5.165066407719209,1574.3265,211.753,11.69,235.0,C3H5ClO2,ethyl chloroformate,541-41-3,192.0,Yaw
CC(F)(Cl)CCl,"1,2",4.7396864077192085,1507.3775,231.434,-3.75,110.82,C3H5Cl2F,"1,2-dichloro-2-fluoropropane",420-97-3,181.45,Yaw
CCC(F)(Cl)Cl,2,5.100916407719208,1589.6247,231.434,-3.75,110.82,C3H5Cl2F,dichlorofluoropropane,134237-45-9,181.36941394843927,ML
CCC(Cl)(Cl)Cl,"1,2",4.035636407719209,1386.0258,226.596,7.67,144.53,C3H5Cl3,"1,1,1-trichloropropane",7789-89-1,236.31,Yaw
CC(Cl)C(Cl)Cl,"1,2",4.423396407719209,1562.425,219.368,28.47,159.64,C3H5Cl3,"1,1,2-trichloropropane",598-77-6,236.31,Yaw
ClCCC(Cl)Cl,"1,2",4.512806407719209,1629.8073,215.601,39.31,171.36,C3H5Cl3,"1,1,3-trichloropropane",20395-25-9,214.17,Yaw
CC(Cl)(Cl)CCl,"1,2",4.449326407719209,1539.1117,221.87,21.27,149.15,C3H5Cl3,"1,2,2-trichloropropane",3175-23-3,236.31,Yaw
ClCC(Cl)CCl,"1,2",4.563116407719209,1680.6413,212.46,48.35,183.19,C3H5Cl3,"1,2,3-trichloropropane",96-18-4,258.45,Yaw
CC=CF,2,4.377016407719209,1063.2453,262.736,-92.83,-1.88,C3H5F,1-fluoro-1-propene,---,124.87775627215615,ML
C/C=C\F,2,4.377016407719209,1063.2453,262.736,-92.83,-1.88,C3H5F,cis-1-fluoro-1-propene,19184-10-2,118.6785842051965,ML
C/C=C/F,2,4.377016407719209,1063.2453,262.736,-92.83,-1.88,C3H5F,trans-1-fluoro-1-propene,20327-65-5,122.14433669830021,ML
C=C(C)F,2,4.420176407719208,1073.7276,262.736,-92.33,-2.07,C3H5F,2-fluoro-1-propene,1184-60-7,124.21411738236738,ML
C=CCF,"1,2",5.217496407719208,1287.4086,256.898,-75.53,14.36,C3H5F,3-fluoro-1-propene,818-92-8,115.49757256353939,ML
FCC1CO1,"1,2",5.812356407719209,2084.6,273.15,-2.18,105.09,C3H5FO,(fluoromethyl)oxirane,503-09-3,180.02980617197406,ML
C[Se]C(=O)CF,3,6.156186407719209,2420.0,273.15,-0.15,140.16,C3H5FOSe,"fluoroselenoacetic acid, Se-methyl ester",367-52-2,224.0109055628036,ML
COC(=O)CF,"1,2",5.897596407719208,2227.2285,273.15,-0.15,124.81,C3H5FO2,methyl fluoroacetate,453-18-9,238.15,Yaw
CCC(F)(F)F,3,4.117966407719209,941.161,240.55,-83.66,6.03,C3H5F3,"1,1,1-trifluoropropane",421-07-8,124.35,Yaw
CC(F)C(F)F,3,3.719206407719208,992.1247,258.338,-81.17,31.91,C3H5F3,"1,1,2-trifluoropropane",---,124.35,Yaw
FCCC(F)F,3,3.738726407719208,996.872,258.216,-80.82,31.77,C3H5F3,"1,1,3-trifluoropropane",24270-67-5,124.35,Yaw
CC(F)(F)CF,"1,2",3.2504264077192087,902.7774,258.992,-83.05,47.1,C3H5F3,"1,2,2-trifluoropropane",811-94-9,124.35,Yaw
FCC(F)CF,3,3.738726407719208,996.872,258.216,-80.82,31.77,C3H5F3,"1,2,3-trifluoropropane",66794-36-3,124.35,Yaw
CC(O)C(F)(F)F,"1,2",4.858146407719208,1334.24,199.64,-1.65,93.14,C3H5F3O,"1,1,1-trifluoropropan-2-ol",374-01-6,221.15,Yaw
CCS(=O)C(F)(F)F,3,2.8592864077192086,1198.0,273.15,-20.41,195.14,C3H5F3OS,[(trifluoromethyl)-sulfinyl]ethane,56919-38-1,221.00776527165021,ML
CCSSC(F)(F)F,3,4.969286407719209,1766.0,273.15,-20.15,105.15,C3H5F3S2,ethyl(trifluoromethyl) disulfide,691-05-4,179.48607716437155,ML
CC[Se]C(F)(F)F,3,5.009286407719209,1650.0,273.15,-50.15,77.3,C3H5F3Se,ethyl(trifluoromethyl) selenide,690-25-5,170.82881406261504,ML
CCS(F)(F)(F)(F)C(F)(F)F,3,4.7392864077192085,1630.0,273.15,-26.93,94.11,C3H5F7S,ethyltetrafluoro (trifluoromethyl) sulfur,56919-37-0,202.4254515508758,ML
CC=CI,2,5.064756407719209,1608.2995,230.435,1.12,113.86,C3H5I,1-iodo-1-propene,---,173.86,Yaw
C/C=C\I,2,5.064756407719209,1608.2995,230.435,1.12,113.86,C3H5I,cis-1-iodo-1-propene,7796-36-3,173.86,Yaw
C/C=C/I,2,5.064756407719209,1608.2995,230.435,1.12,113.86,C3H5I,trans-1-iodo-1-propene,7796-54-5,173.86,Yaw
C=C(C)I,2,5.557756407719209,1752.7824,228.264,7.37,122.04,C3H5I,2-iodo-1-propene,4375-96-6,173.86,Yaw
C=CCI,"1,2",4.732096407719209,1565.1663,227.706,8.98,125.52,C3H5I,3-iodo-1-propene,556-56-9,173.86,Yaw
CCC(I)(I)I,2,8.662746407719208,3584.156,180.704,159.23,296.19,C3H5I3,"1,1,1-triiodopropane",---,320.4327233795236,ML
CC(I)C(I)I,2,8.92124640771921,3685.2825,180.051,161.11,298.65,C3H5I3,"1,1,2-triiodopropane",---,334.91144130536196,ML
ICCC(I)I,2,8.971156407719208,3704.8026,179.928,161.47,299.11,C3H5I3,"1,1,3-triiodopropane",---,320.0468717677097,ML
CC(I)(I)CI,2,8.662746407719208,3584.156,180.704,159.23,296.19,C3H5I3,"1,2,2-triiodopropane",---,335.7451603326644,ML
ICC(I)CI,2,8.971156407719208,3704.8026,179.928,161.47,299.11,C3H5I3,"1,2,3-triiodopropane",---,329.55426543111275,ML
CCC#N,"1,2",4.182586407719208,1275.0453,207.996,2.29,291.25,C3H5N,propionitrile,107-12-0,180.26,Yaw
[C-]#[N+]CC,2,3.287866407719209,940.4482,189.186,-7.23,125.68,C3H5N,ethyl isocyanide,624-79-3,206.26771155116012,ML
N#CCCO,"1,2",5.777556407719208,3018.139,294.341,99.76,256.76,C3H5NO,hydracrylonitrile,109-78-4,227.15,Yaw
CC(O)C#N,3,12.569876407719208,4060.5381,199.035,81.96,131.93,C3H5NO,lactonitrile,78-97-7,233.0,Yaw
CCN=C=O,2,4.630646407719208,1404.875,239.384,-23.63,85.1,C3H5NO,ethyl isocyanate,109-90-0,256.9238115757404,ML
CCN=C=S,"1,2",5.898776407719209,2652.4469,318.16,17.4,155.68,C3H5NS,ethyl isothiocyanate,542-85-8,267.25,Yaw
CCSC#N,"1,2",4.025386407719209,1343.5436,187.768,39.71,172.98,C3H5NS,ethyl thiocyanate,542-90-5,187.65,Yaw
C1CC1,"1,2",4.227176407719209,919.9453,250.776,-100.16,125.15,C3H6,cyclopropane,75-19-4,145.7,Yaw
C=CC,"1,2",4.126436407719209,859.722,255.895,-112.78,91.06,C3H6,propylene,115-07-1,87.95,Yaw
ClCCCBr,"1,2",4.248866407719208,1521.5155,215.249,32.97,170.76,C3H6BrCl,1-bromo-3-chloropropane,109-70-6,214.25,Yaw
CCC(Br)Br,2,3.9840964077192087,1508.7464,228.819,28.43,180.82,C3H6Br2,"1,1-dibromopropane",598-17-4,228.46,Yaw
CC(Br)CBr,"1,2",4.447846407719209,1572.1414,212.611,35.81,166.51,C3H6Br2,"1,2-dibromopropane",78-75-1,217.96,Yaw
BrCCCBr,"1,2",5.024166407719209,1839.3099,209.242,57.13,193.99,C3H6Br2,"1,3-dibromopropane",109-64-8,238.95,Yaw
CC(C)(Br)Br,"1,2",4.038316407719209,1173.9062,175.592,22.73,138.51,C3H6Br2,"2,2-dibromopropane",594-16-1,228.46,Yaw
FCCCCl,2,5.227276407719209,1586.4841,233.824,-10.63,101.81,C3H6ClF,1-chloro-3-fluoropropane,462-38-4,174.19396191340374,ML
CCC(F)Cl,2,5.227276407719209,1586.4841,233.824,-10.63,101.81,C3H6ClF,chlorofluoropropane,134190-54-8,158.2979873628918,ML
CC(C)(F)Cl,"1,2",5.359206407719208,1615.9319,233.824,-10.63,101.81,C3H6ClF,2-chloro-2-fluoropropane,420-44-0,181.38729897262132,ML
CC(Cl)CF,2,5.227276407719209,1586.4841,233.824,-10.63,101.81,C3H6ClF,2-chloro-1-fluoropropane,---,167.65720683769527,ML
OC(CF)CCl,3,6.848086407719208,2801.8,273.15,47.83,154.8,C3H6ClFO,1-chloro-3-fluoro-2-propanol,453-11-2,250.1009687438302,ML
CCC(Cl)Cl,"1,2",4.208746407719208,1335.8123,229.239,-9.88,112.6,C3H6Cl2,"1,1-dichloropropane",78-99-9,189.59,Yaw
CC(Cl)CCl,"1,2",4.296936407719208,1448.2346,240.189,-5.76,122.24,C3H6Cl2,"1,2-dichloropropane",78-87-5,172.71,Yaw
ClCCCCl,"1,2",4.274646407719208,1490.3725,227.804,14.32,147.26,C3H6Cl2,"1,3-dichloropropane",142-28-9,173.65,Yaw
CC(C)(Cl)Cl,"1,2",3.977656407719208,1153.9314,220.853,-33.79,93.08,C3H6Cl2,"2,2-dichloropropane",594-20-7,239.36,Yaw
OCC(Cl)CCl,"1,2",5.628686407719208,2566.6799,273.15,68.64,208.62,C3H6Cl2O,"2,3-dichloro-1-propanol",616-23-9,244.0,Yaw
OC(CCl)CCl,"1,2",5.494256407719208,2370.4039,257.083,64.32,199.36,C3H6Cl2O,"1,3-dichloro-2-propanol",96-23-1,269.15,Yaw
C=C[Si](C)(Cl)Cl,3,4.216466407719208,1383.0,234.2,-7.38,119.02,C3H6Cl2Si,dichlorovinylmethylsilane,124-70-9,178.15,Yaw
ClCCC[Si](Cl)(Cl)Cl,3,4.242446407719209,1646.28,206.55,39.85,211.14,C3H6Cl4Si,trichloro(3-chloropropyl)silane,2550-06-3,258.0729472987389,ML
CC(Cl)C[Si](Cl)(Cl)Cl,3,4.005126407719208,1461.48,198.48,39.85,196.08,C3H6Cl4Si,trichloro(2-chloropropyl)silane,7787-89-5,249.89627195006372,ML
CCC(F)F,2,3.7402664077192087,953.8002,238.284,-68.6,39.05,C3H6F2,"1,1-difluoropropane",430-61-5,168.35,Yaw
CC(F)CF,2,3.752786407719209,838.3626,206.672,-57.86,36.21,C3H6F2,"1,2-difluoropropane",62126-90-3,168.35,Yaw
FCCCF,2,5.6564464077192085,1223.248,199.533,-37.24,61.52,C3H6F2,"1,3-difluoropropane",462-39-5,168.35,Yaw
CC(C)(F)F,"1,2",3.7779464077192086,786.7441,209.396,-70.37,17.91,C3H6F2,"2,2-difluoropropane",420-45-1,168.35,Yaw
CN(C)[S](C)(F)(F)F,3,4.025246407719209,1130.84,225.57,-34.1,78.08,C3H6F3NS,dimethyl(trifluoro-methylthio)amine,62067-13-4,252.24295421053606,ML
COP(OC)C(F)(F)F,3,4.8122964077192085,1633.62,251.6,-36.15,110.52,C3H6F3O2P,dimethyl(trifluoro-methyl)phosphonite,684-56-0,238.4726552387502,ML
CCC(I)I,2,3.4607764077192087,1530.0966,202.8,83.65,281.45,C3H6I2,"1,1-diiodopropane",10250-52-9,256.66,Yaw
CC(I)CI,2,3.003446407719209,1150.7734,143.825,57.0,282.01,C3H6I2,"1,2-diiodopropane",598-29-8,253.16,Yaw
ICCCI,2,3.1325864077192085,1202.4599,144.53,95.32,280.13,C3H6I2,"1,3-diiodopropane",627-31-6,260.15,Yaw
CC(C)(I)I,2,2.0358364077192084,681.6627,95.506,78.54,297.43,C3H6I2,"2,2-diiodopropane",630-13-7,256.66,Yaw
CCC([N+](=O)[O-])[N+](=O)[O-],3,4.381396407719208,1735.4897,198.942,78.19,226.38,C3H6N2O4,"1,1-dinitropropane",601-76-3,231.15,Yaw
O=[N+]([O-])CCC[N+](=O)[O-],3,4.495896407719209,1807.6832,204.912,78.57,226.02,C3H6N2O4,"1,3-dinitropropane",6125-21-9,251.75,Yaw
CC(C)([N+](=O)[O-])[N+](=O)[O-],"1,2",5.054356407719209,1971.4288,204.495,79.77,210.25,C3H6N2O4,"2,2-dinitropropane",595-49-3,326.15,Yaw
C=CCO,"1,2",4.917606407719209,1557.4031,219.849,9.23,271.95,C3H6O,allyl alcohol,107-18-6,144.15,Yaw
C=COC,"1,2",5.039566407719208,1612.7791,314.474,-81.43,25.88,C3H6O,methyl vinyl ether,107-25-5,151.15,Yaw
CCC=O,"1,2",4.382606407719209,1277.1176,242.556,-38.65,231.25,C3H6O,propionaldehyde,123-38-6,170.0,Yaw
CC(C)=O,"1,2",4.436606407719209,1315.6735,240.479,-32.22,234.95,C3H6O,acetone,67-64-1,178.5,Yaw
CC1CO1,"1,2",4.2645764077192085,1155.5706,236.22,-48.18,209.1,C3H6O,"1,2-propylene oxide",75-56-9,161.22,Yaw
C1COC1,"1,2",4.192686407719209,1219.2621,240.757,-40.01,72.54,C3H6O,"1,3-propylene oxide",503-30-0,161.24,Yaw
CCC(=O)O,"1,2",4.801356407719209,1730.2269,219.512,39.42,327.66,C3H6O2,propanoic acid,79-09-4,252.45,Yaw
CCOC=O,"1,2",4.359776407719209,1257.4237,234.565,-33.07,235.25,C3H6O2,ethyl formate,109-94-4,193.55,Yaw
COC(C)=O,"1,2",4.404106407719208,1277.2143,233.155,-29.94,233.4,C3H6O2,methyl acetate,79-20-9,175.15,Yaw
C1COCO1,"1,2",4.349446407719209,1314.6555,227.708,-16.7,99.0,C3H6O2,"1,3-dioxolane",646-06-0,175.93,Yaw
O=C(O)CCS,3,9.693666407719208,3760.8511,218.905,106.02,181.5,C3H6O2S,3-mercaptopropionic acid,107-96-0,290.65,Yaw
CC(O)C(=O)O,"1,2",3.3694664077192087,1511.8752,181.639,106.32,311.08,C3H6O3,lactic acid,50-21-5,289.9,Yaw
COCC(=O)O,"1,2",4.8421164077192085,1869.1405,182.467,95.56,231.2,C3H6O3,methoxyacetic acid,625-45-6,281.0,Yaw
C1CSC1,"1,2",4.207186407719209,1351.5517,226.499,-4.5,119.8,C3H6S,thiacyclobutane,287-27-4,199.91,Yaw
CC1CS1,"1,2",4.1968464077192085,1248.2025,224.864,-19.49,98.03,C3H6S,2-methylthiacyclopropane,1072-43-1,182.15,Yaw
CCCBr,"1,2",4.461516407719208,1406.0482,244.4,-22.71,93.89,C3H7Br,1-bromopropane,106-94-5,163.15,Yaw
CC(C)Br,"1,2",4.3696364077192085,1335.2821,245.732,-32.1,82.46,C3H7Br,2-bromopropane,75-26-3,184.15,Yaw
CCCCl,"1,2",4.215306407719209,1205.108,239.039,-41.35,230.0,C3H7Cl,1-chloropropane,540-54-5,150.35,Yaw
CC(C)Cl,"1,2",4.019636407719209,1016.7307,218.091,-45.78,56.48,C3H7Cl,2-chloropropane,75-29-6,155.97,Yaw
CC(Cl)CO,3,4.876936407719208,1097.0586,135.182,23.0,104.56,C3H7ClO,2-chloro-1-propanol,78-89-7,230.52498151638815,ML
CC(C)[Si](Cl)(Cl)Cl,3,3.847636407719208,1293.5,215.18,9.85,149.53,C3H7Cl3Si,trichloroisopropylsilane,4170-46-1,185.45,Yaw
CCCF,"1,2",4.124616407719208,976.5126,239.952,-77.35,15.44,C3H7F,1-fluoropropane,460-13-9,114.16,Yaw
CC(C)F,"1,2",3.9884364077192087,867.4505,227.642,-79.85,8.71,C3H7F,2-fluoropropane,420-26-8,139.8,Yaw
CCCI,"1,2",4.448866407719208,1567.2388,249.929,-2.33,128.05,C3H7I,1-iodopropane,107-08-4,171.85,Yaw
CC(C)I,"1,2",4.335846407719209,1435.772,241.89,-10.93,114.29,C3H7I,2-iodopropane,75-30-9,183.15,Yaw
C=CCN,"1,2",4.460826407719209,1276.7591,233.166,-31.84,74.1,C3H7N,allylamine,107-11-9,184.95,Yaw
CC1CN1,"1,2",1.880436407719209,769.2776,232.545,-44.15,254.52,C3H7N,propyleneimine,75-55-8,229.0,Yaw