smiles,code,A [log10(atm)],B [C],C [C],TMIN [C],TMAX [C],FORMULA,NAME,CAS No,mp [K],mp_type
CCCCC=CC(C)CC(=O)O,2,3.787826407719209,1800.293,184.618,132.97,331.7,C10H18O2,3-methyl-4-nonenoic acid,---,291.98,Yaw
CCCCC=C(C)CCC(=O)O,2,3.787826407719209,1800.293,184.618,132.97,331.7,C10H18O2,4-methyl-4-nonenoic acid,---,291.98,Yaw
CCCCC(C)=CCCC(=O)O,2,3.787826407719209,1800.293,184.618,132.97,331.7,C10H18O2,5-methyl-4-nonenoic acid,---,291.98,Yaw
CCCC(C)C=CCCC(=O)O,2,3.787826407719209,1800.293,184.618,132.97,331.7,C10H18O2,6-methyl-4-nonenoic acid,---,291.98,Yaw
CCC(C)CC=CCCC(=O)O,2,3.787826407719209,1800.293,184.618,132.97,331.7,C10H18O2,7-methyl-4-nonenoic acid,---,291.98,Yaw
CC(C)CCC=CCCC(=O)O,2,3.787826407719209,1800.293,184.618,132.97,331.7,C10H18O2,8-methyl-4-nonenoic acid,---,291.98,Yaw
CCCCCC(C)=C(C)C(=O)O,2,3.737456407719209,1778.4299,185.174,131.37,332.35,C10H18O2,"2,3-dimethyl-2-octenoic acid",---,291.98,Yaw
CCCCC(C)C=C(C)C(=O)O,2,3.737456407719209,1778.4299,185.174,131.37,332.35,C10H18O2,"2,4-dimethyl-2-octenoic acid",---,291.98,Yaw
CCCC(C)CC=C(C)C(=O)O,2,3.737456407719209,1778.4299,185.174,131.37,332.35,C10H18O2,"2,5-dimethyl-2-octenoic acid",---,291.98,Yaw
CCC(C)CCC=C(C)C(=O)O,2,3.737456407719209,1778.4299,185.174,131.37,332.35,C10H18O2,"2,6-dimethyl-2-octenoic acid",---,291.98,Yaw
CC(=CCCCC(C)C)C(=O)O,2,3.737456407719209,1778.4299,185.174,131.37,332.35,C10H18O2,"2,7-dimethyl-2-octenoic acid",---,291.98,Yaw
CCCCCC=C(CC)C(=O)O,2,3.8392264077192086,1822.5903,184.062,134.57,331.06,C10H18O2,2-ethyl-2-octenoic acid,---,291.98,Yaw
CCCCCC(=CC(=O)O)CC,2,3.8392264077192086,1822.5903,184.062,134.57,331.06,C10H18O2,3-ethyl-2-octenoic acid,---,291.98,Yaw
CCCCC(C=CC(=O)O)CC,2,3.8392264077192086,1822.5903,184.062,134.57,331.06,C10H18O2,4-ethyl-2-octenoic acid,---,291.98,Yaw
CCCC(CC)CC=CC(=O)O,2,3.8392264077192086,1822.5903,184.062,134.57,331.06,C10H18O2,5-ethyl-2-octenoic acid,---,291.98,Yaw
CCC(CC)CCC=CC(=O)O,2,3.8392264077192086,1822.5903,184.062,134.57,331.06,C10H18O2,6-ethyl-2-octenoic acid,---,291.98,Yaw
C=COC(=O)C(CC)CCCC,2,3.744836407719209,1556.4398,205.719,70.95,246.23,C10H18O2,vinyl 2-ethylhexanoate,94-04-2,183.25,Yaw
C=CC(=O)OCCCCCCC,2,4.825956407719208,1962.8575,196.825,95.84,236.96,C10H18O2,heptyl acrylate,2499-58-3,183.25,Yaw
CCC=CCCOC(=O)C(C)C,2,4.825956407719208,1962.8575,196.825,95.84,236.96,C10H18O2,3-hexenyl isobutyrate,57859-47-9,183.25,Yaw
CC=CC(=O)OCCCCCC,2,4.825956407719208,1962.8575,196.825,95.84,236.96,C10H18O2,hexyl-2-butenoate,19089-92-0,183.25,Yaw
CCCCCCC=CC(=O)OC,2,4.825956407719208,1962.8575,196.825,95.84,236.96,C10H18O2,methyl nonylenate,111-79-5,183.25,Yaw
C=CC(CCCCC)OC(C)=O,2,4.825956407719208,1962.8575,196.825,95.84,236.96,C10H18O2,1-octen-3-yl acetate,2442-10-6,183.25,Yaw
O=C(O)CCCCCCCCC(=O)O,"1,2",5.351566407719208,2874.963,162.919,234.59,406.32,C10H18O4,sebacic acid,111-20-6,404.0,Yaw
CCOC(=O)CCCCC(=O)OCC,3,6.795816407719208,3995.483,337.566,122.92,277.62,C10H18O4,diethyl adipate,141-28-6,253.35,Yaw
CCCOC(=O)CCC(=O)OCCC,"1,2",5.326266407719208,2636.2614,244.154,121.63,280.45,C10H18O4,dipropyl succinate,925-15-5,267.25,Yaw
CC(CCCCCC(=O)O)CC(=O)O,3,5.0402664077192085,2671.0745,154.611,231.32,409.0,C10H18O4,3-methylnonanedioic acid,76078-85-8,317.15,Yaw
CC(C)(C)C(CCC(=O)O)CC(=O)O,3,4.971406407719209,2637.3426,155.167,229.72,409.53,C10H18O4,3-tert-butyl adipic acid,10347-88-3,388.65,Yaw
CCCCCCCCC=CBr,2,5.321906407719208,2203.9124,189.734,116.25,249.22,C10H19Br,1-bromo-1-decene,---,248.47060395753306,ML
CCCCCCCC/C=C\Br,2,5.159146407719209,2136.5122,189.734,113.75,250.05,C10H19Br,cis-1-bromo-1-decene,66291-72-3,240.74028598024825,ML
CCCCCCCC/C=C/Br,2,5.159146407719209,2136.5122,189.734,113.75,250.05,C10H19Br,trans-1-bromo-1-decene,66291-73-4,240.62368949420753,ML
CCCCCCCC=CCBr,2,5.346216407719208,2213.2387,189.595,116.65,249.09,C10H19Br,1-bromo-2-decene,14304-30-4,255.87655208163338,ML
C=C(Br)CCCCCCCC,2,5.370716407719209,2222.6332,189.456,117.05,248.96,C10H19Br,2-bromo-1-decene,3017-67-2,236.397025052497,ML
C=CC(Br)CCCCCCC,2,5.420256407719208,2241.63,189.178,117.85,248.71,C10H19Br,3-bromo-1-decene,---,247.73918867733036,ML
C=CCC(Br)CCCCCC,2,5.445306407719208,2251.2339,189.039,118.25,248.58,C10H19Br,4-bromo-1-decene,---,242.5019113136867,ML
C=CCCC(Br)CCCCC,2,5.470556407719208,2260.9091,188.9,118.65,248.45,C10H19Br,5-bromo-1-decene,---,243.25885250385306,ML
C=CCCCC(Br)CCCC,2,5.495986407719208,2270.6566,188.761,119.05,248.33,C10H19Br,6-bromo-1-decene,---,244.8443998110678,ML
C=CCCCCC(Br)CCC,2,5.521616407719209,2280.477,188.622,119.45,248.2,C10H19Br,7-bromo-1-decene,---,244.82142276861643,ML
C=CCCCCCC(Br)CC,2,5.547436407719209,2290.3713,188.483,119.85,248.08,C10H19Br,8-bromo-1-decene,---,240.7127681928122,ML
C=CCCCCCCC(C)Br,2,5.573456407719208,2300.3403,188.344,120.25,247.95,C10H19Br,9-bromo-1-decene,---,240.3037106095505,ML
C=CCCCCCCCCBr,2,5.599686407719208,2310.3848,188.205,120.65,247.83,C10H19Br,10-bromo-1-decene,---,248.88251172064528,ML
CCCCCCCC=C(C)Br,2,5.652736407719209,2330.7042,187.927,121.45,247.58,C10H19Br,2-bromo-2-decene,---,247.6694704754656,ML
CC=C(Br)CCCCCCC,2,5.679576407719209,2340.9807,187.788,121.85,247.46,C10H19Br,3-bromo-2-decene,---,240.49001522616064,ML
CC=CC(Br)CCCCCC,2,5.7066264077192095,2351.3364,187.649,122.25,247.33,C10H19Br,4-bromo-2-decene,---,245.40625258885066,ML
CC=CCC(Br)CCCCC,2,5.733886407719208,2361.7722,187.51,122.65,247.21,C10H19Br,5-bromo-2-decene,---,240.70947704416417,ML
CC=CCCC(Br)CCCC,2,5.761366407719208,2372.2891,187.371,123.05,247.09,C10H19Br,6-bromo-2-decene,---,245.97005458757062,ML
CC=CCCCC(Br)CCC,2,5.789056407719208,2382.8879,187.232,123.45,246.97,C10H19Br,7-bromo-2-decene,---,247.6435080296986,ML
CC=CCCCCC(Br)CC,2,5.816976407719208,2393.5698,187.093,123.85,246.84,C10H19Br,8-bromo-2-decene,---,244.5917592674933,ML
CC=CCCCCCC(C)Br,2,5.845116407719209,2404.3356,186.954,124.25,246.72,C10H19Br,9-bromo-2-decene,---,246.5677763348186,ML
CC=CCCCCCCCBr,2,5.873476407719208,2415.1863,186.815,124.65,246.6,C10H19Br,10-bromo-2-decene,---,253.3814160809512,ML
CCCCCCCCCC(Br)(Br)Br,2,4.876716407719209,2309.7125,169.328,172.47,335.45,C10H19Br3,"1,1,1-tribromodecane",62127-67-7,298.25576842471065,ML
CCCCCCCCC=CCl,2,3.847736407719209,1671.4121,196.239,95.53,275.02,C10H19Cl,1-chloro-1-decene,---,244.91902719779068,ML
CCCCCCCC/C=C\Cl,2,4.079946407719208,1763.4317,194.07,101.77,272.58,C10H19Cl,cis-1-chloro-1-decene,66291-47-2,240.3394066912838,ML
CCCCCCCC/C=C/Cl,2,4.079946407719208,1763.4317,194.07,101.77,272.58,C10H19Cl,trans-1-chloro-1-decene,66291-48-3,237.6010248213743,ML
C=C(Cl)CCCCCCCC,2,3.847736407719209,1671.4121,196.239,95.53,275.02,C10H19Cl,2-chloro-1-decene,---,233.63207657898693,ML
C=CC(Cl)CCCCCCC,2,3.862016407719208,1677.0756,196.1,95.93,274.86,C10H19Cl,3-chloro-1-decene,---,248.2912590841535,ML
C=CCC(Cl)CCCCCC,2,3.8763664077192086,1682.7701,195.961,96.33,274.7,C10H19Cl,4-chloro-1-decene,---,249.76556012568412,ML
C=CCCC(Cl)CCCCC,2,3.890806407719209,1688.4958,195.822,96.73,274.54,C10H19Cl,5-chloro-1-decene,---,247.4157804709332,ML
C=CCCCC(Cl)CCCC,2,3.9053164077192086,1694.253,195.683,97.13,274.38,C10H19Cl,6-chloro-1-decene,---,246.0416032093107,ML
C=CCCCCC(Cl)CCC,2,3.919916407719208,1700.042,195.544,97.53,274.23,C10H19Cl,7-chloro-1-decene,---,244.76533771907233,ML
C=CCCCCCC(Cl)CC,2,3.934606407719208,1705.8631,195.405,97.93,274.07,C10H19Cl,8-chloro-1-decene,---,241.82340128196935,ML
C=CCCCCCCC(C)Cl,2,3.949366407719209,1711.7165,195.266,98.33,273.91,C10H19Cl,9-chloro-1-decene,---,240.9914635249744,ML
C=CCCCCCCCCCl,2,3.964216407719209,1717.6025,195.127,98.73,273.75,C10H19Cl,10-chloro-1-decene,---,245.42062410411344,ML
CCCCCCCC=CCCl,2,3.979156407719208,1723.5213,194.988,99.13,273.6,C10H19Cl,1-chloro-2-decene,---,250.116634121394,ML
CCCCCCCC=C(C)Cl,2,3.9941864077192086,1729.4734,194.849,99.53,273.44,C10H19Cl,2-chloro-2-decene,---,243.9857198667727,ML
CC=C(Cl)CCCCCCC,2,4.009296407719209,1735.4589,194.71,99.93,273.29,C10H19Cl,3-chloro-2-decene,---,240.33523008308487,ML
CC=CC(Cl)CCCCCC,2,4.024486407719209,1741.4782,194.571,100.33,273.13,C10H19Cl,4-chloro-2-decene,---,246.68995685649392,ML
CC=CCC(Cl)CCCCC,2,4.039776407719208,1747.5315,194.432,100.73,272.98,C10H19Cl,5-chloro-2-decene,---,245.51880935426388,ML
CC=CCCC(Cl)CCCC,2,4.055156407719209,1753.6192,194.293,101.13,272.83,C10H19Cl,6-chloro-2-decene,---,247.6199513351814,ML
CC=CCCCC(Cl)CCC,2,4.070616407719209,1759.7415,194.154,101.53,272.67,C10H19Cl,7-chloro-2-decene,---,246.8863520692288,ML
CC=CCCCCC(Cl)CC,2,4.086176407719209,1765.8988,194.015,101.93,272.52,C10H19Cl,8-chloro-2-decene,---,244.95360978384699,ML
CC=CCCCCCC(C)Cl,2,4.101826407719209,1772.0914,193.876,102.33,272.37,C10H19Cl,9-chloro-2-decene,---,245.6817170209522,ML
CC=CCCCCCCCCl,2,4.117566407719209,1778.3195,193.737,102.73,272.21,C10H19Cl,10-chloro-2-decene,---,246.58220982228295,ML
CC1CCC(C(C)C)C(Cl)C1,2,4.133396407719209,1784.5835,193.598,103.13,272.06,C10H19Cl,(1R)-(-)-menthyl chloride,16052-42-9,255.0,Yaw
ClCCN(CCCl)C1CCCCC1,3,4.315546407719209,2653.8012,273.15,155.13,387.9,C10H19Cl2N,"N,N-bis(2-chloroethyl)-cyclohexylamine",4261-59-0,286.8793651400821,ML
CCCCCCCCCC(Cl)(Cl)Cl,"1,2",5.236986407719209,2247.0777,183.228,132.47,272.02,C10H19Cl3,"1,1,1-trichlorodecane",62108-56-9,283.41776256166605,ML
CCCCCCCCC=CF,2,3.827436407719208,1590.2431,204.857,73.73,246.1,C10H19F,1-fluoro-1-decene,---,227.17357394178882,ML
CCCCCCCC/C=C\F,2,3.827436407719208,1590.2431,204.857,73.73,246.1,C10H19F,cis-1-fluoro-1-decene,66291-49-4,221.5712630682327,ML
CCCCCCCC/C=C/F,2,3.827436407719208,1590.2431,204.857,73.73,246.1,C10H19F,trans-1-fluoro-1-decene,66291-50-7,225.02941954459803,ML
C=C(F)CCCCCCCC,2,3.842246407719209,1595.8634,204.718,74.13,245.94,C10H19F,2-fluoro-1-decene,---,218.38781081555018,ML
C=CC(F)CCCCCCC,2,3.857146407719209,1601.5157,204.579,74.53,245.78,C10H19F,3-fluoro-1-decene,---,219.77763625805412,ML
C=CCC(F)CCCCCC,2,3.872136407719209,1607.2003,204.44,74.93,245.62,C10H19F,4-fluoro-1-decene,---,221.39040847876822,ML
C=CCCC(F)CCCCC,2,3.887216407719209,1612.9175,204.301,75.33,245.46,C10H19F,5-fluoro-1-decene,---,219.0875098714699,ML
C=CCCCC(F)CCCC,2,3.902376407719209,1618.6676,204.162,75.73,245.3,C10H19F,6-fluoro-1-decene,---,222.02282579602942,ML
C=CCCCCC(F)CCC,2,3.917636407719209,1624.4509,204.023,76.13,245.14,C10H19F,7-fluoro-1-decene,---,221.8545374117341,ML
C=CCCCCCC(F)CC,2,3.9329764077192086,1630.2677,203.884,76.53,244.98,C10H19F,8-fluoro-1-decene,---,220.46955389859104,ML
C=CCCCCCCC(C)F,2,3.948416407719209,1636.1183,203.745,76.93,244.83,C10H19F,9-fluoro-1-decene,---,220.8656284098361,ML
C=CCCCCCCCCF,2,3.9639464077192086,1642.0029,203.606,77.33,244.67,C10H19F,10-fluoro-1-decene,---,228.5687588684801,ML
CCCCCCCC=CCF,2,3.979576407719208,1647.922,203.467,77.73,244.52,C10H19F,1-fluoro-2-decene,---,227.02550970351558,ML
CCCCCCCC=C(C)F,2,3.995296407719208,1653.8757,203.328,78.13,244.36,C10H19F,2-fluoro-2-decene,---,216.38080380483856,ML
CC=C(F)CCCCCCC,2,4.0111064077192085,1659.8645,203.189,78.53,244.2,C10H19F,3-fluoro-2-decene,---,214.32666674902816,ML
CC=CC(F)CCCCCC,2,4.027016407719208,1665.8886,203.05,78.93,244.05,C10H19F,4-fluoro-2-decene,---,218.9317086736272,ML
CC=CCC(F)CCCCC,2,4.043026407719209,1671.9484,202.911,79.33,243.9,C10H19F,5-fluoro-2-decene,---,216.7712281781477,ML
CC=CCCC(F)CCCC,2,4.059126407719209,1678.0442,202.772,79.73,243.74,C10H19F,6-fluoro-2-decene,---,217.858204901434,ML
CC=CCCCC(F)CCC,2,4.075336407719209,1684.1763,202.633,80.13,243.59,C10H19F,7-fluoro-2-decene,---,220.24452306428364,ML
CC=CCCCCC(F)CC,2,4.091636407719209,1690.3451,202.494,80.53,243.44,C10H19F,8-fluoro-2-decene,---,220.41343106982367,ML
CC=CCCCCCC(C)F,2,4.108036407719209,1696.5508,202.355,80.93,243.28,C10H19F,9-fluoro-2-decene,---,220.6179838926039,ML
CC=CCCCCCCCF,2,4.124546407719208,1702.7939,202.216,81.33,243.13,C10H19F,10-fluoro-2-decene,---,228.1723019250476,ML
CCCCCCCCCC(F)(F)F,3,3.636086407719208,1469.3935,212.55,53.79,228.04,C10H19F3,"1,1,1-trifluorodecane",26288-16-4,236.92613830601383,ML
CCCCCCCCC=CI,2,6.056516407719208,2491.8011,186.564,127.37,246.38,C10H19I,1-iodo-1-decene,66291-51-8,266.2362057636149,ML
CCCCCCCC/C=C/I,2,6.056516407719208,2491.8011,186.564,127.37,246.38,C10H19I,trans-1-iodo-1-decene,66291-52-9,262.29162764944067,ML
C=C(I)CCCCCCCC,2,6.068496407719209,2496.3899,186.509,127.53,246.33,C10H19I,2-iodo-1-decene,---,248.98412259743654,ML
C=CC(I)CCCCCCC,2,6.080506407719209,2500.9937,186.453,127.69,246.28,C10H19I,3-iodo-1-decene,---,262.35348673713264,ML
C=CCC(I)CCCCCC,2,6.092556407719208,2505.6124,186.398,127.85,246.24,C10H19I,4-iodo-1-decene,---,252.87147753482273,ML
C=CCCC(I)CCCCC,2,6.104656407719208,2510.2461,186.342,128.01,246.19,C10H19I,5-iodo-1-decene,---,254.60693691030664,ML
C=CCCCC(I)CCCC,2,6.116786407719209,2514.895,186.286,128.17,246.14,C10H19I,6-iodo-1-decene,---,255.41235525801872,ML
C=CCCCCC(I)CCC,2,6.128956407719208,2519.559,186.231,128.33,246.09,C10H19I,7-iodo-1-decene,---,255.1196287552103,ML
C=CCCCCCC(I)CC,2,6.141166407719208,2524.2383,186.175,128.49,246.05,C10H19I,8-iodo-1-decene,---,256.1606724760498,ML
C=CCCCCCCC(C)I,2,6.153426407719209,2528.9329,186.12,128.65,246.0,C10H19I,9-iodo-1-decene,---,256.4316336634732,ML
C=CCCCCCCCCI,2,6.165716407719209,2533.6429,186.064,128.81,245.95,C10H19I,10-iodo-1-decene,---,262.6844391317795,ML
CCCCCCCC=CCI,2,6.178056407719209,2538.3685,186.008,128.97,245.91,C10H19I,1-iodo-2-decene,---,271.4143619469323,ML
CCCCCCCC=C(C)I,2,6.190426407719208,2543.1096,185.953,129.13,245.86,C10H19I,2-iodo-2-decene,---,269.0221845056719,ML
CC=C(I)CCCCCCC,2,6.202846407719209,2547.8663,185.897,129.29,245.81,C10H19I,3-iodo-2-decene,---,258.51776721199184,ML
CC=CC(I)CCCCCC,2,6.2153064077192095,2552.6388,185.842,129.45,245.76,C10H19I,4-iodo-2-decene,---,260.447931097054,ML
CC=CCC(I)CCCCC,2,6.227806407719209,2557.427,185.786,129.61,245.72,C10H19I,5-iodo-2-decene,---,254.33214960151733,ML
CC=CCCC(I)CCCC,2,6.240356407719208,2562.2312,185.73,129.77,245.67,C10H19I,6-iodo-2-decene,---,257.33673295720337,ML
CC=CCCCC(I)CCC,2,6.252946407719209,2567.0513,185.675,129.93,245.62,C10H19I,7-iodo-2-decene,---,258.39903013199296,ML
CC=CCCCCC(I)CC,2,6.265566407719209,2571.8875,185.619,130.09,245.58,C10H19I,8-iodo-2-decene,---,258.5476090790733,ML
CC=CCCCCCC(C)I,2,6.278246407719209,2576.7398,185.564,130.25,245.53,C10H19I,9-iodo-2-decene,---,261.28946528657235,ML
CC=CCCCCCCCI,2,6.290956407719209,2581.6083,185.508,130.41,245.48,C10H19I,10-iodo-2-decene,---,264.9405629453061,ML
CCCCCCCCCC#N,"1,2",4.350036407719209,1880.3472,188.51,113.27,275.89,C10H19N,decanenitrile,1975-78-6,258.65,Yaw
CSc1nc(NC(C)C)nc(NC(C)C)n1,3,8.96028640771921,5222.0,273.15,208.54,329.9,C10H19N5S,prometryn,7287-19-6,392.15,Yaw
CCOC(=O)CC(SP(=S)(OC)OC)C(=O)OCC,3,5.682876407719208,3716.6,273.15,218.22,417.43,C10H19O6PS2,malathion,121-75-5,276.0,Yaw
CCOC(=O)CC([SH]=P([O-])(OC)OC)C(=O)OCC,3,8.737386407719208,4880.0,273.15,186.44,305.3,C10H19O7PS,"O,O-dimethyl S-[1,2-bis(ethoxycarbonyl)-ethyl]thiophosphate",900000-46-6,297.5722043094569,ML
CCCCCC1CCCC1,"1,2",4.400476407719209,1697.2843,205.855,64.36,208.17,C10H20,pentylcyclopentane,3741-00-2,190.16,Yaw
CCCCC1CCCCC1,"1,2",4.033156407719209,1580.6233,212.057,55.21,211.46,C10H20,butylcyclohexane,1678-93-9,198.42,Yaw
CC(C)(C)C1CCCCC1,"1,2",3.7416764077192086,1370.8145,195.514,48.3,202.9,C10H20,tert-butylcyclohexane,3178-22-1,231.95,Yaw
CCC(C)C1CCCCC1,"1,2",4.262726407719208,1643.574,206.219,61.31,208.65,C10H20,sec-butylcyclohexane,7058-01-7,188.82,Yaw
CC(C)CC1CCCCC1,"1,2",3.686596407719208,1333.3853,190.395,49.1,203.45,C10H20,isobutylcyclohexane,1678-98-4,178.15,Yaw
CCCC1(C)CCCCC1,"1,2",4.172316407719209,1596.3211,208.248,55.47,204.1,C10H20,1-methyl-1-propylcyclohexane,4258-93-9,188.82,Yaw
CCCC1CCCCC1C,"1,2",4.255466407719209,1631.0617,207.136,58.67,205.33,C10H20,1-methyl-2-propylcyclohexane,4291-79-6,188.82,Yaw
CCCC1CCCC(C)C1,"1,2",3.9701164077192086,1520.0902,210.333,49.47,203.96,C10H20,1-methyl-3-propylcyclohexane,4291-80-9,188.82,Yaw
CCCC1CCC(C)CC1,"1,2",4.251286407719209,1628.3505,207.275,58.27,204.94,C10H20,1-methyl-4-propylcyclohexane,4291-81-0,188.82,Yaw
CC(C)C1CCCCC1C,"1,2",4.260826407719208,1616.4578,208.526,54.67,199.69,C10H20,1-methyl-2-isopropylcyclohexane,16580-23-7,188.82,Yaw
CC1CCCC(C(C)C)C1,"1,2",4.2373864077192085,1595.9172,209.777,51.07,195.65,C10H20,1-methyl-3-isopropylcyclohexane,16580-24-8,188.82,Yaw
CC1CCC(C(C)C)CC1,"1,2",4.286336407719209,1622.2046,208.61,54.43,198.44,C10H20,1-methyl-4-isopropylcyclohexane,99-82-1,185.55,Yaw
CC1CCC(C)(C)CC1C,2,3.844466407719208,1473.9978,211.584,45.87,204.4,C10H20,"1,1,3,4-tetramethylcyclohexane",24612-75-7,188.82,Yaw
CC1CC(C)CC(C)(C)C1,"1,2",4.240556407719208,1564.4542,212.586,42.99,184.53,C10H20,"trans-1,1,3,5-tetramethylcyclohexane",50876-31-8,188.82,Yaw
C1CCCCCCCCC1,3,4.411216407719208,1749.6995,204.824,73.26,220.87,C10H20,cyclodecane,293-96-9,284.15,Yaw
C=CCCCCCCCC,"1,2",4.434266407719209,1694.6254,215.316,53.03,194.68,C10H20,1-decene,872-05-9,206.89,Yaw
CC=CCCCCCCC,2,5.571746407719209,2070.2874,204.746,73.05,188.05,C10H20,2-decene,---,216.22,Yaw
C/C=C\CCCCCCC,2,5.571746407719209,2070.2874,204.746,73.05,188.05,C10H20,cis-2-decene,20348-51-0,216.22,Yaw
CCC=CCCCCCC,2,5.277626407719209,1968.7777,206.219,68.81,189.39,C10H20,3-decene,---,216.22,Yaw
CC/C=C\CCCCCC,2,5.277626407719209,1968.7777,206.219,68.81,189.39,C10H20,cis-3-decene,---,216.22,Yaw
CC/C=C/CCCCCC,2,5.277626407719209,1968.7777,206.219,68.81,189.39,C10H20,trans-3-decene,---,216.22,Yaw
CCCC=CCCCCC,2,4.689856407719208,1760.8566,208.638,59.35,192.58,C10H20,4-decene,19689-18-0,216.22,Yaw
CCCCC=CCCCC,2,5.157756407719209,1927.3609,206.858,66.97,189.98,C10H20,5-decene,---,200.15,Yaw
C=C(C)CCCCCCC,2,4.257386407719209,1591.5282,207.004,52.28,195.27,C10H20,2-methyl-1-nonene,2980-71-4,208.33,Yaw
C=CC(C)CCCCCC,2,4.818696407719209,1810.0343,208.804,61.37,191.85,C10H20,3-methyl-1-nonene,---,216.22,Yaw
C=CCC(C)CCCCC,2,4.818696407719209,1810.0343,208.804,61.37,191.85,C10H20,4-methyl-1-nonene,---,216.22,Yaw
C=CCCC(C)CCCC,2,4.818696407719209,1810.0343,208.804,61.37,191.85,C10H20,5-methyl-1-nonene,---,216.22,Yaw
C=CCCCC(C)CCC,2,4.818696407719209,1810.0343,208.804,61.37,191.85,C10H20,6-methyl-1-nonene,---,216.22,Yaw
C=CCCCCC(C)CC,2,4.818696407719209,1810.0343,208.804,61.37,191.85,C10H20,7-methyl-1-nonene,---,216.22,Yaw
C=CCCCCCC(C)C,2,4.8417164077192085,1818.0084,208.665,61.77,191.72,C10H20,8-methyl-1-nonene,26741-24-2,216.22,Yaw
CC=C(C)CCCCCC,2,4.818696407719209,1810.0343,208.804,61.37,191.85,C10H20,3-methyl-2-nonene,---,216.22,Yaw
CC=CC(C)CCCCC,2,4.818696407719209,1810.0343,208.804,61.37,191.85,C10H20,4-methyl-2-nonene,---,216.22,Yaw
CC=CCC(C)CCCC,2,4.818696407719209,1810.0343,208.804,61.37,191.85,C10H20,5-methyl-2-nonene,---,216.22,Yaw
CC=CCCC(C)CCC,2,4.818696407719209,1810.0343,208.804,61.37,191.85,C10H20,6-methyl-2-nonene,---,216.22,Yaw
CC=CCCCC(C)CC,2,4.818696407719209,1810.0343,208.804,61.37,191.85,C10H20,7-methyl-2-nonene,---,216.22,Yaw
CC=CCCCCC(C)C,2,4.818696407719209,1810.0343,208.804,61.37,191.85,C10H20,8-methyl-2-nonene,---,216.22,Yaw
CCCCCC=CC(C)C,2,4.295226407719209,1624.1509,211.306,51.67,195.32,C10H20,2-methyl-3-nonene,53966-53-3,216.22,Yaw
CCC=C(C)CCCCC,2,4.818696407719209,1810.0343,208.804,61.37,191.85,C10H20,4-methyl-3-nonene,---,216.22,Yaw
CCC=CC(C)CCCC,2,4.818696407719209,1810.0343,208.804,61.37,191.85,C10H20,5-methyl-3-nonene,---,216.22,Yaw
CCC=CCC(C)CCC,2,4.818696407719209,1810.0343,208.804,61.37,191.85,C10H20,6-methyl-3-nonene,---,216.22,Yaw
CCC=CCCC(C)CC,2,4.818696407719209,1810.0343,208.804,61.37,191.85,C10H20,7-methyl-3-nonene,---,216.22,Yaw
CCC=CCCCC(C)C,2,4.818696407719209,1810.0343,208.804,61.37,191.85,C10H20,8-methyl-3-nonene,---,216.22,Yaw
CCCC=C(C)CCCC,2,4.675656407719209,1760.4592,209.692,58.81,192.73,C10H20,5-methyl-4-nonene,15918-07-7,216.22,Yaw
CCCC=CCCC(C)C,2,4.818696407719209,1810.0343,208.804,61.37,191.85,C10H20,8-methyl-4-nonene,70732-43-3,216.22,Yaw
C=C(C)C(C)CCCCC,2,4.513816407719209,1704.2995,210.75,55.77,193.8,C10H20,"2,3-dimethyl-1-octene",---,216.22,Yaw