smiles,code,A [log10(atm)],B [C],C [C],TMIN [C],TMAX [C],FORMULA,NAME,CAS No,mp [K],mp_type
CN(C)C=O,"1,2",4.360466407719208,1597.9245,213.457,42.57,376.45,C3H7NO,"N,N-dimethylformamide",68-12-2,212.72,Yaw
CNC(C)=O,"1,2",4.533636407719209,1828.5293,198.275,86.79,233.74,C3H7NO,N-methylacetamide,79-16-3,301.15,Yaw
CCNC=O,"1,2",4.576066407719209,1825.9422,201.02,81.77,226.1,C3H7NO,N-ethylformamide,627-45-2,212.72,Yaw
CCC[N+](=O)[O-],"1,2",4.634986407719208,1715.5936,238.777,24.52,157.07,C3H7NO2,1-nitropropane,108-03-2,169.16,Yaw
CC(C)[N+](=O)[O-],"1,2",4.606396407719209,1670.1399,242.22,15.23,145.7,C3H7NO2,2-nitropropane,79-46-9,181.83,Yaw
CCCO[N+](=O)[O-],"1,2",4.428456407719208,1488.1025,225.482,10.38,135.06,C3H7NO3,propyl nitrate,627-13-4,173.16,Yaw
CC(C)O[N+](=O)[O-],"1,2",4.441766407719209,1459.8881,228.123,2.78,124.44,C3H7NO3,isopropyl nitrate,1712-64-7,173.16,Yaw
CCC,"1,2",4.139406407719209,889.8642,257.084,-109.27,96.74,C3H8,propane,74-98-6,85.53,Yaw
CCO[Si](C)(Cl)Cl,3,4.337136407719209,1452.98,234.44,-0.76,125.56,C3H8Cl2OSi,dichloroethoxy-methylsilane,1825-75-8,194.5303683507411,ML
C[Si](C)(Cl)CCl,3,6.135036407719209,2635.0,314.0,14.72,137.66,C3H8Cl2Si,chloro(chloromethyl)dimethylsilane,1719-57-9,245.1531392616029,ML
CCCO,"1,2",4.895766407719209,1518.7957,213.076,11.05,263.63,C3H8O,propyl alcohol,71-23-8,146.95,Yaw
CC(C)O,"1,2",4.944356407719209,1482.1331,217.413,-0.26,235.16,C3H8O,isopropyl alcohol,67-63-0,185.28,Yaw
CCOC,"1,2",3.3569664077192085,610.124,171.699,-55.21,164.65,C3H8O,methyl ethyl ether,540-67-0,160.0,Yaw
OCC(S)CS,3,7.997986407719209,3792.7621,273.15,79.85,219.61,C3H8OS2,"2,3-dimercapto-1-propanol",59-52-9,249.44668365999323,ML
COCCO,"1,2",5.599726407719208,2153.2586,260.079,27.77,146.3,C3H8O2,2-methoxyethanol,109-86-4,188.05,Yaw
COCOC,"1,2",3.879736407719209,931.4003,197.918,-36.23,207.45,C3H8O2,methylal,109-87-5,168.35,Yaw
CC(O)CO,"1,2",5.158936407719208,2015.9124,203.912,62.58,212.05,C3H8O2,"1,2-propanediol (propylene glycol)",57-55-6,335.73,Yaw
OCCCO,"1,2",5.1233864077192095,2103.7188,196.461,103.89,410.85,C3H8O2,"1,3-propanediol",504-63-2,246.45,Yaw
OCC(O)CO,"1,2",4.055776407719208,1429.633,62.493,178.32,318.26,C3H8O3,glycerol,56-81-5,291.33,Yaw
CCOS(=O)OC,"1,2",3.5590164077192084,1273.1167,216.866,17.17,174.11,C3H8O3S,ethyl methyl sulfite,10315-59-0,237.5583126036594,ML
CCOS(=O)(=O)OC,3,3.884966407719209,1582.4367,200.667,73.79,240.87,C3H8O4S,ethyl methyl sulfate,814-40-4,243.73181503458727,ML
CCCS,"1,2",4.2364464077192086,1284.0192,235.338,-25.44,263.45,C3H8S,1-propanethiol,107-03-9,159.95,Yaw
CC(C)S,"1,2",4.522466407719208,1340.0177,241.453,-32.18,75.98,C3H8S,2-propanethiol,75-33-2,142.61,Yaw
CCSC,"1,2",4.072036407719208,1186.3234,224.684,-25.4,259.85,C3H8S,2-thiabutane,624-89-5,167.23,Yaw
SCCCS,"1,2",4.988956407719209,2208.5325,273.634,47.85,200.04,C3H8S2,"1,3-propanedithiol",109-80-8,194.15,Yaw
CC(S)CS,2,3.5896964077192086,1388.2972,213.808,39.97,208.34,C3H8S2,"1,2-propanedithiol",814-67-5,194.15,Yaw
CCSSC,2,4.942866407719209,1685.0955,217.978,28.97,163.73,C3H8S2,"2,3-dithiapentane",20333-39-5,169.70054664389545,ML
CSCSC,"1,2",4.214406407719209,1529.7059,214.92,36.05,175.97,C3H8S2,"2,4-dithiapentane",1618-26-4,178.69913401232216,ML
C[As](C)C,3,4.454546407719208,1394.6777,261.091,-40.95,74.69,C3H9As,trimethylarsine,593-88-4,185.85,Yaw
COB(OC)OC,3,2.6982564077192084,515.7423,123.639,-14.0,91.5,C3H9BO3,trimethyl borate,121-43-7,243.85,Yaw
COB(OC)SC,3,4.7727664077192085,2345.1,273.15,51.85,251.28,C3H9BS3,trimethyl thioborate,997-49-9,252.72753765295883,ML
CN1B(Cl)N(C)B(Cl)N(C)B1Cl,3,5.953926407719209,3024.76,273.15,89.85,261.93,C3H9B3Cl3N3,"2,4,6-trichloro-1,3,5-trimethylborazine",703-86-6,321.70656749188475,ML
C[Si](C)(C)Cl,"1,2",4.145946407719209,1203.2562,233.375,-37.8,224.6,C3H9ClSi,trimethylchlorosilane,75-77-4,215.45,Yaw
C[Ge](C)(C)F,3,4.304896407719209,1403.14,244.09,-17.25,106.36,C3H9FGe,fluorotrimethyl-germane,661-37-0,204.94386713068192,ML
C[Si](C)(C)F,3,4.844826407719209,1405.0,273.15,-64.25,36.06,C3H9FSi,fluorotrimethylsilane,420-56-4,185.20795647861578,ML
CCCN,"1,2",4.134496407719209,1093.4453,215.619,-33.84,223.8,C3H9N,propylamine,107-10-8,190.15,Yaw
CC(C)N,"1,2",4.1736664077192085,1081.6722,226.316,-47.66,198.7,C3H9N,isopropylamine,75-31-0,177.95,Yaw
CCNC,"1,2",3.996776407719208,945.2317,200.649,-39.83,201.85,C3H9N,methylethylamine,624-78-2,202.16,Yaw
CN(C)C,"1,2",4.122306407719209,990.9392,238.535,-73.46,160.1,C3H9N,trimethylamine,75-50-3,156.08,Yaw
CC(O)CN,"1,2",5.693606407719209,2343.2904,251.515,57.85,183.02,C3H9NO,1-amino-2-propanol,78-96-6,274.89,Yaw
NCCCO,"1,2",5.187066407719209,1946.1871,187.65,87.71,210.67,C3H9NO,3-amino-1-propanol,156-87-6,284.15,Yaw
CNCCO,"1,2",4.808746407719209,1731.2946,201.98,56.83,182.09,C3H9NO,methylethanolamine,109-83-1,268.65,Yaw
CC(N)CO,"1,2",4.991106407719209,1907.1171,207.553,69.97,199.08,C3H9NO,"2-amino-1-propanol, ()",6168-72-5,286.52,Yaw
C[C@@H](N)CO,"1,2",4.991106407719209,1907.1171,207.553,69.97,199.08,C3H9NO,(R)-(-)-2-amino-1-propanol,35320-23-1,286.52,Yaw
NCC(O)CO,"1,2",5.943896407719208,2656.3106,182.547,156.93,288.32,C3H9NO2,"()-3-amino-1,2-propanediol",616-30-8,315.07405823853463,ML
COP(=O)(OC)OC,3,4.694326407719209,2069.6267,243.878,70.89,227.21,C3H9O4P,trimethyl phosphate,512-56-1,227.0,Yaw
CP(C)C,3,5.174956407719209,1669.1683,285.047,-48.48,57.42,C3H9P,trimethylphosphine,594-09-2,188.15,Yaw
C[Sb](C)C,3,4.773096407719208,1687.8683,273.021,-19.36,104.4,C3H9Sb,trimethylstibine,594-10-5,211.15,Yaw
CC(N)CN,"1,2",4.675586407719209,1576.3098,217.586,22.84,142.75,C3H10N2,"1,2-propanediamine",78-90-0,236.53,Yaw
NCCCN,"1,2",4.7909464077192085,1711.5667,217.2,39.34,164.0,C3H10N2,"1,3-propanediamine",109-76-2,261.15,Yaw
CNN(C)C,2,4.882626407719209,1557.8646,231.086,-0.75,111.41,C3H10N2,trimethylhydrazine,1741-01-1,201.24,Yaw
C[SiH](C)C,"1,2",3.917966407719209,1012.4005,249.55,-74.96,30.36,C3H10Si,trimethyl silane,993-07-7,137.26,Yaw
S=C=C=C=S,3,4.669496407719208,2009.093,252.07,54.65,207.84,C3S2,carbon subsulfide,627-34-9,229.87788432051582,ML
FC(F)(F)N(C(F)(F)F)C(F)(Cl)C(F)(Cl)Br,3,4.776186407719209,1904.0,273.15,12.86,152.31,C4BrCl2F8N,"2-bromo-1,2-dichloro-1,2-difluoro-N,N-bis(trifluoro-methyl)ethylamine",4905-98-0,259.92343721914824,ML
FC1(F)C(F)(F)C(F)(Cl)C1(F)F,3,3.828936407719208,1098.5341,250.226,-57.83,61.16,C4ClF7,"1-chloro-1,2,2,3,3,4,4-heptafluorocyclobutane",377-41-3,234.13822017699843,ML
FC(Cl)=C(F)N(C(F)(F)F)C(F)(F)F,3,4.843186407719209,1522.0,273.15,-46.8,61.93,C4ClF8N,"N,N-bis(trifluoromethyl)-2-chloro-1,2-difluorovinylamine",13747-22-3,168.67739509646287,ML
ClSCl.FC(F)C(F)(F)C(F)(F)C(F)(F)F,3,5.009286407719209,1783.0,273.15,-14.37,105.55,C4ClF9S,"1,1,2,2,3,3,4,4,4-nonafluorobutane sulfenyl chloride",42769-81-3,194.88937213707752,ML
FC(F)(F)C(F)(F)C(F)(F)C(F)(F)S(F)(F)(F)(F)Cl,3,5.2792864077192085,1940.0,273.15,-2.2,116.54,C4ClF12S,chlorotetrafluoro-(nonafluorobutyl) sulfur,42769-87-9,203.60846322423868,ML
FC1(F)C(F)(F)C(F)(Cl)C1(F)Cl,"1,2",4.599016407719208,1375.1633,239.662,-27.44,80.29,C4Cl2F6,"1,2-dichloro-1,2,3,3,4,4-hexafluorocyclobutane",356-18-3,249.15,Yaw
FC(F)(F)C(Cl)=C(Cl)C(F)(F)F,"1,2",5.000706407719209,1708.906,275.577,-27.24,88.05,C4Cl2F6,"trans-2,3-dichloro-1,1,1,4,4,4-hexafluorobutene",2418-21-5,205.85,Yaw
FC(=C(F)C(F)(F)Cl)C(F)(F)Cl,2,4.518456407719208,1541.3913,273.15,-32.28,92.33,C4Cl2F6,"1,4-dichloro-1,1,2,3,4,4-hexafluoro-2-butene",20972-44-5,155.2596705234524,ML
FC(F)(F)C(F)(Cl)C(Cl)(Cl)C(F)(F)F,3,3.912966407719209,1198.627,208.322,-1.44,123.53,C4Cl3F7,"2,2,3-trichloro-1,1,1,3,4,4,4-heptafluorobutane",335-44-4,275.15,Yaw
FC(Cl)=C(F)C(F)(Cl)C(F)(Cl)Cl,3,3.914826407719208,1315.159,195.716,31.21,168.21,C4Cl4F4,"(+,-)-1,3,4,4-tetrachloro-1,2,3,4-tetrafluoro-1-butene",357-19-7,228.02736821008622,ML
FC(F)(F)C(F)(Cl)C(F)(F)OC(Cl)(Cl)Cl,3,3.989816407719209,1334.61,204.19,23.15,157.61,C4Cl4F6O,"trichloromethyl 2-chloro-1,1,2,3,3,3-hexafluoropropyl ether",61136-57-0,252.10393754192035,ML
Clc1sc(Cl)c(Cl)c1Cl,3,4.288746407719208,1850.8706,198.174,101.83,265.97,C4Cl4S,tetrachlorothiophene,6012-97-1,301.97,Yaw
ClC(Cl)=C(Cl)C(Cl)=C(Cl)Cl,"1,2",3.4933164077192087,1284.8734,152.759,86.33,249.73,C4Cl6,"hexachloro-1,3-butadiene",87-68-3,252.15,Yaw
O=C(OC(=O)C(F)(F)F)C(F)(F)F,3,4.658776407719208,1216.0029,221.513,-35.57,57.53,C4F6O3,trifluoroacetic acid anhydride,407-25-0,208.15,Yaw
FC(=C(F)C(F)(F)F)C(F)(F)F,"1,2",3.886176407719209,961.0382,246.147,-79.5,21.91,C4F8,octafluoro-2-butene,360-89-4,138.15,Yaw
FC(F)=C(C(F)(F)F)C(F)(F)F,2,5.092486407719209,1278.8224,254.118,-70.73,26.0,C4F8,perfluoroisobutene,382-21-8,143.15,Yaw
FC(F)=C(F)C(F)(F)C(F)(F)F,"1,2",4.376776407719209,1137.2802,254.994,-73.25,24.04,C4F8,"1,1,2,3,3,4,4,4-octafluoro-1-butene",357-26-6,140.65,Yaw
FC1(F)SC(F)(F)C(F)(F)C1(F)F,3,4.499286407719208,1406.0,273.15,-52.78,61.75,C4F8S,octafluorotetra-hydrothiophene,706-76-3,230.25309058870872,ML
FC(F)(F)C(F)(F)C(F)(F)C(F)(F)F,"1,2",4.192486407719208,1003.1379,241.421,-76.25,113.18,C4F10,decafluorobutane,355-25-9,145.0,Yaw
FC(F)(F)C(F)(C(F)(F)F)C(F)(F)F,2,3.994296407719209,1029.1451,259.4,-84.23,19.25,C4F10,perfluoroisobutane,354-92-7,144.95,Yaw
O=S(C(F)(F)C(F)(F)F)C(F)(F)C(F)(F)F,3,5.469286407719208,1836.0,273.15,-23.36,82.1,C4F10OS,bis(pentafluoroethyl) sulfoxide,33622-25-2,253.37496187873407,ML
O=S(=O)(F)OC(F)(C(F)(F)F)C(F)(F)C(F)(F)F,3,4.917846407719209,1658.185,266.96,-23.06,92.2,C4F10O3S,"fluorosulfuric acid, nonafluoro(1-methylpropyl) ester",5762-52-7,222.1651397757366,ML
FC(F)(F)C(F)(F)[Se]C(F)(F)C(F)(F)F,3,5.179286407719209,1650.0,273.15,-41.15,65.09,C4F10Se,bis(pentafluoroethyl) selenide,6123-61-1,240.36035857284153,ML
FC(F)(F)C(F)(F)[Se][Se]C(F)(F)C(F)(F)F,3,5.769286407719209,2090.0,273.15,-1.15,109.06,C4F10Se2,bis(pentafluoroethyl) diselenide,6123-49-5,262.42740254597123,ML
FC(F)(F)ON(N(C(F)(F)F)C(F)(F)F)C(F)(F)F,3,5.346186407719209,1671.0,273.15,-41.93,58.06,C4F12N2O,"perfluoro-2,3-dimethyl-4-oxa-2,3-diazapentane",10405-32-0,222.8350860604111,ML
O=S(F)(F)(C(F)(F)C(F)(F)F)C(F)(F)C(F)(F)F,3,5.458946407719209,1936.715,287.242,-23.38,88.24,C4F12OS,difluorooxobis(penta-fluoroethyl) sulfur,33564-25-9,237.92632009513466,ML
O=S(OC(F)(F)F)(OC(F)(F)F)(C(F)(F)F)C(F)(F)F,3,4.719286407719209,1746.0,273.15,-8.61,122.03,C4F12O3S,oxobis(trifluoro-methoxy)bis(trifluoro-methyl) sulfur,66632-46-0,270.8814948413853,ML
FC(F)(F)P1P(C(F)(F)F)P(C(F)(F)F)P1C(F)(F)F,3,8.93898640771921,3413.13,273.15,18.85,121.98,C4F12P4,"1,2,3,4-tetrakis-(trifluoromethyl)-tetraphosphethane",393-02-2,278.96665394145265,ML
FC(F)(F)C(F)(F)C(F)(F)S(F)(F)C(F)(F)F,3,4.999286407719208,1712.0,273.15,-24.32,91.24,C4F12S,difluoro(heptafluoro-propyl)(trifluoro-methyl) sulfur,31206-31-2,170.35204431800977,ML
FC(F)(F)C(F)(F)S(F)(F)C(F)(F)C(F)(F)F,3,4.918286407719209,1685.0,273.15,-25.32,91.79,C4F12S,difluorobis(penta-fluoroethyl) sulfur,33622-15-0,174.06979585932254,ML
O=C(O)C(F)(F)C(F)(Cl)C(F)(F)Cl,3,6.275286407719209,2863.0,273.15,77.88,206.07,C4HCl2F5O2,"2,2,3,4,4-pentafluoro-3,4-dichlorobutanoic acid",375-07-5,300.3557568364494,ML
C#CC(F)(F)C(F)(F)F,3,4.714386407719209,1231.7,273.15,-86.39,5.93,C4HF5,"3,3,4,4,4-pentafluoro-1-butyne",7096-51-7,179.06672314656885,ML
FC(F)=CC(F)(F)C(F)(F)F,3,5.219286407719208,1450.0,273.15,-68.93,21.67,C4HF7,"1,1,3,3,4,4,4-heptafluoro-1-butene",681-22-1,159.57660697170732,ML
O=C(O)C(F)(F)C(F)(F)C(F)(F)F,3,6.253496407719208,2464.8155,273.15,29.86,140.93,C4HF7O2,heptafluorobutanoic acid,375-22-4,255.65,Yaw
FC(F)C(F)(F)C(F)(F)C(F)(F)F,"1,2",4.381556407719208,1182.6877,254.774,-65.92,35.06,C4HF9,"1,1,1,2,2,3,3,4,4-nonafluorobutane",375-17-7,171.107117902772,ML
C#CC#CI,"1,2",4.276966407719208,1314.0201,236.382,-22.99,94.11,C4HI,"1-iodo-1,3-butadiyne",6088-91-1,243.25,Yaw
Brc1cscc1Br,3,3.8255264077192086,2024.731,307.768,47.05,266.71,C4H2Br2S,"3,4-dibromothiophene",3141-26-2,277.65,Yaw
O=C(Cl)C=CC(=O)Cl,3,3.916476407719209,1944.2116,285.072,8.0,252.68,C4H2Cl2O2,trans-2-butenedioyl dichloride,627-63-4,260.25686339524344,ML
Clc1ccc(Cl)s1,3,3.991686407719208,1720.1701,268.938,23.98,197.15,C4H2Cl2S,"2,5-dichlorothiophene",3172-52-9,232.65,Yaw
ClC=C(Cl)C(Cl)=CCl,3,4.578336407719209,1779.9491,203.8,71.77,212.34,C4H2Cl4,"1,2,3,4-tetrachloro-1,3-butadiene",1637-31-6,271.15,Yaw
FC(F)=CC=C(F)F,3,4.192596407719209,1168.724,273.15,-80.72,27.17,C4H2F4,"1,1,4,4-tetrafluoro-1,3-butadiene",407-70-5,179.74772302759155,ML
FC1C(C(F)(F)F)C1(F)F,3,5.248186407719208,1553.0,273.15,-55.31,40.77,C4H2F6,"1,1,2-trifluoro-3-(trifluoromethyl)-cyclopropane",2967-53-5,174.51234214819112,ML
F/C=C/N(C(F)(F)F)C(F)(F)F,3,5.013186407719209,1491.0,273.15,-56.87,43.27,C4H2F7N,"trans-2-fluoro-N,N-bis(trifluoromethyl)-vinylamine",25211-47-6,181.1206178604108,ML
F/C=C\N(C(F)(F)F)C(F)(F)F,3,4.840186407719209,1521.0,273.15,-46.84,61.93,C4H2F7N,"cis-2-fluoro-N,N-bis(trifluoromethyl)-vinylamine",25273-51-2,185.40635553912463,ML
FC(C(F)C(F)(F)F)C(F)(F)F,"1,2",3.611766407719209,1040.1764,254.496,-65.12,59.69,C4H2F8,"1,1,1,2,3,4,4,4-octafluorobutane",75995-72-1,187.8605273156196,ML
O=[N+]([O-])c1ccc([N+](=O)[O-])s1,3,5.491716407719208,3081.24,271.07,114.85,322.54,C4H2N2O4S,"2,5-dinitrothiophene",59434-05-8,354.15,Yaw
O=[N+]([O-])c1csc([N+](=O)[O-])c1,3,5.504186407719208,3116.1,273.15,114.85,325.74,C4H2N2O4S,"2,4-dinitrothiophene",900002-53-1,329.15,Yaw
O=C1C=CC(=O)O1,"1,2",5.454746407719208,2525.0548,262.86,52.85,229.63,C4H2O3,maleic anhydride,108-31-6,326.0,Yaw
Brc1cccs1,3,3.637316407719209,1600.13,289.92,0.06,189.69,C4H3BrS,2-bromothiophene,1003-09-4,205.3,Yaw
Brc1ccsc1,3,3.629166407719208,1614.225,285.292,7.67,199.73,C4H3BrS,3-bromothiophene,872-31-1,242.34666438533384,ML
Clc1cccs1,3,4.431426407719209,1763.7919,269.719,9.7,157.31,C4H3ClS,2-chlorothiophene,96-43-5,201.25,Yaw
O=C(SCC(F)F)C(F)(F)F,3,2.998096407719209,842.03,167.834,4.75,144.37,C4H3F5OS,"trifluorothioacetic acid, S-(2,2-difluoroethyl) ester",35709-11-6,258.56963600441185,ML
CC(=O)[N+]([O-])(C(F)(F)F)C(F)(F)F,3,6.320426407719209,2160.6,275.6,-12.15,83.34,C4H3F6NO2,"N,N-bis(trifluoromethyl)-acetamide N-oxide",22743-78-8,269.3223337984815,ML
CC(F)(F)C(F)(F)C(F)(F)F,"1,2",4.494476407719208,1210.6704,254.218,-64.32,34.49,C4H3F7,"1,1,1,2,2,3,3-heptafluorobutane",662-00-0,160.35929506945047,ML
OCC(F)(F)C(F)(F)C(F)(F)F,3,6.184976407719208,2277.0,273.15,-0.15,113.84,C4H3F7O,"2,2,3,3,4,4,4-heptafluoro-1-butanol",375-01-9,248.66839671079086,ML
COC(F)(C(F)(F)F)C(F)(F)F,"1,2",4.906216407719208,1362.7437,247.888,-47.1,48.03,C4H3F7O,perfluoroisopropyl methyl ether,22052-84-2,166.2,Yaw
C[Se]C(F)(F)C(F)(F)C(F)(F)F,3,5.069286407719209,1608.0,273.15,-41.79,64.08,C4H3F7Se,methyl(heptafluoro-propyl) selenide,662-45-3,207.66523793610008,ML
Ic1cccs1,3,6.877626407719209,4664.8473,497.264,35.35,212.05,C4H3IS,2-iodothiophene,3437-95-4,233.15,Yaw
O=[N+]([O-])c1cccs1,3,5.710326407719208,2965.23,294.775,95.84,253.4,C4H3NO2S,2-nitrothiophene,609-40-5,319.65,Yaw
C#CC=C,"1,2",3.895246407719209,842.4945,213.288,-67.43,23.98,C4H4,vinylacetylene,689-97-4,163.54879071367756,ML
ClC=C[As](Cl)C=CCl,3,6.632696407719209,3065.3,273.15,86.9,210.97,C4H4AsCl3,bis(2-chlorovinyl)chloroarsine,40334-69-8,293.89788465046087,ML
C=CC=C(Cl)Cl,2,5.335996407719209,1713.1213,222.009,15.37,149.32,C4H4Cl2,"1,1-dichloro-1,3-butadiene",6061-06-9,210.67290086523886,ML
C=CC(Cl)=CCl,2,2.517896407719209,698.1967,178.253,-19.53,144.16,C4H4Cl2,"1,2-dichloro-1,3-butadiene",3574-40-1,205.17201477272053,ML
C=C(Cl)C(=C)Cl,"1,2",4.965026407719209,1899.7739,284.581,-7.07,122.75,C4H4Cl2,"2,3-dichloro-1,3-butadiene",1653-19-6,223.31493872419128,ML
O=C(Cl)CCC(=O)Cl,3,4.244526407719208,1881.0255,228.26,38.85,248.73,C4H4Cl2O2,butanedioyl dichloride,543-20-4,293.15,Yaw
O=C(CCl)OC(=O)CCl,3,5.125446407719208,2704.7907,285.65,66.85,275.0,C4H4Cl2O3,chloroacetic anhydride,541-88-8,319.15,Yaw
ClC=CC(Cl)C(Cl)Cl,3,5.8046464077192095,2114.962,201.34,73.85,182.95,C4H4Cl4,"1,3,4,4-tetrachloro-1-butene",2984-40-9,284.31460800702484,ML
C=C(Cl)C(Cl)(Cl)CCl,3,5.8046464077192095,2114.962,201.34,73.85,182.95,C4H4Cl4,"2,3,3,4-tetrachloro-1-butene",64346-45-8,287.5072594502274,ML
O=S1(=O)CC(Cl)(Cl)C(Cl)(Cl)C1,3,8.81206640771921,4612.838,273.15,158.24,268.83,C4H4Cl4O2S,"3,3,4,4-tetrachloro tetrahydrothiophene 1,1-dioxide",3737-41-5,419.68756001331985,ML
O=C(O)CNC(=O)C(F)(F)F,3,10.601586407719209,5162.68,273.15,140.45,228.05,C4H4F3NO3,trifluoroacetylglycine,383-70-0,389.4852064353531,ML
CCSC(=O)C(F)(F)F,3,2.665626407719208,686.853,144.904,6.17,145.57,C4H4F4OS,"trifluorothioacetic acid, S-ethyl ester",35709-10-5,214.02151932473112,ML
N#CCCC#N,"1,2",4.626296407719209,2096.9064,187.208,135.04,298.86,C4H4N2,succinonitrile,110-61-2,331.3,Yaw
c1ccoc1,"1,2",4.241686407719208,1143.4466,238.023,-51.26,217.0,C4H4O,furan,110-00-9,187.55,Yaw
CC#CC=O,"1,2",4.014696407719208,1409.188,226.457,12.57,153.0,C4H4O,2-butynal,1119-19-3,247.15,Yaw
C#CCC=O,"1,2",6.512616407719209,2006.2585,226.457,12.57,128.85,C4H4O,3-butynal,52844-23-2,247.15,Yaw
C=C1CC(=O)O1,"1,2",4.644586407719209,1678.5531,233.95,-6.5,152.5,C4H4O2,diketene,674-82-8,266.65,Yaw
CC#CC(=O)O,"1,2",4.807106407719209,1935.6616,199.616,90.0,230.0,C4H4O2,2-butynoic acid,590-93-2,351.15,Yaw
O=C1CCC(=O)O1,"1,2",5.244196407719208,2616.3569,237.855,119.85,294.54,C4H4O3,succinic anhydride,108-30-5,393.0,Yaw
c1ccsc1,"1,2",4.189066407719209,1296.8798,225.437,-38.21,306.2,C4H4S,thiophene,110-02-1,234.94,Yaw
c1cc[se]c1,3,6.031746407719208,2423.766,291.385,14.93,131.56,C4H4Se,selenophene,288-05-1,239.25,Yaw
C=CC(=C)Cl,"1,2",4.336666407719209,1395.8977,262.433,-37.92,83.46,C4H5Cl,chloroprene,126-99-8,143.15,Yaw
C=C=CCCl,2,5.376856407719208,1592.1169,231.6,-12.23,113.22,C4H5Cl,"4-chloro-1,2-butadiene",25790-55-0,143.15,Yaw
C=CC=CCl,2,4.237426407719209,1278.2855,237.16,-28.23,92.29,C4H5Cl,"1-chloro-1,3-butadiene",627-22-5,143.15,Yaw
CC#CCCl,"1,2",4.7727664077192085,1571.5767,227.43,8.77,125.54,C4H5Cl,1-chloro-2-butyne,3355-17-7,179.65,Yaw
C#CC(C)Cl,2,3.620916407719209,1200.4286,237.021,-18.83,124.57,C4H5Cl,3-chloro-1-butyne,21020-24-6,179.65,Yaw
C=C(C)C(=O)Cl,3,3.4635264077192085,1137.2678,214.625,-1.83,144.99,C4H5ClO,2-methyl-2-propenoyl chloride,920-46-7,213.15,Yaw
ClCC=C(Cl)CCl,2,4.296186407719208,1561.9379,215.893,36.97,175.06,C4H5Cl3,"1,2,4-trichloro-2-butene",2431-54-1,279.79925229655373,ML
C=C(Cl)C(Cl)CCl,2,4.296186407719208,1561.9379,215.893,36.97,175.06,C4H5Cl3,"2,3,4-trichloro-1-butene",2431-50-7,271.2447794444631,ML
CC(CCl)=C(Cl)Cl,"1,2",4.292226407719209,1573.3002,212.696,42.17,184.38,C4H5Cl3,"1,1,3-trichloro-2-methyl-1-propene",31702-33-7,274.1331934048913,ML
C=C(C)C(Cl)(Cl)Cl,2,3.6866364077192086,1352.1134,219.09,23.77,180.28,C4H5Cl3,"3,3,3-trichloro-2-methyl-1-propene",4749-27-3,247.7459640751699,ML
CCOC(=O)C(Cl)(Cl)Cl,3,2.6730364077192084,1403.9127,250.888,15.3,340.98,C4H5Cl3O2,ethyl trichloroacetate,515-84-4,274.28085802583524,ML
ClCC(Cl)C(Cl)C(Cl)Cl,2,4.9146564077192085,1974.0447,192.124,98.37,263.01,C4H5Cl5,"1,1,2,3,4-pentachlorobutane",77753-24-3,322.15,Yaw
ClCC(Cl)C(Cl)(Cl)CCl,2,4.660446407719209,1879.7106,193.792,93.57,256.73,C4H5Cl5,"1,2,2,3,4-pentachlorobutane",2431-52-9,334.4,Yaw
ClCC(Cl)(CCl)C(Cl)Cl,2,4.784866407719209,1925.9026,192.958,61.25,259.87,C4H5Cl5,"1,1,2,3-tetrachloro-2-(chloromethyl)propane",66997-45-3,334.4,Yaw
CCC(Cl)(Cl)C(Cl)(Cl)Cl,2,4.660446407719209,1879.7106,193.792,93.57,256.73,C4H5Cl5,pentachlorobutane,31391-27-2,334.4,Yaw
FC(F)=CCCI,3,1.8575764077192083,1500.1548,273.15,44.85,690.62,C4H5F2I,"1,1-difluoro-4-iodo-1-butene",692-26-2,205.26775348354988,ML
FC(F)(F)C1CC1,3,4.866286407719208,1422.0,273.15,-62.39,38.33,C4H5F3,(trifluoromethyl)-cyclopropane,381-74-8,154.77169434163315,ML
C=COCC(F)(F)F,3,1.3866664077192086,136.85,56.19,-14.31,69.87,C4H5F3O,"2,2,2-trifluoroethyl vinyl ether",406-90-6,230.19023198796936,ML
CCOC(=O)C(F)(F)F,3,5.413736407719208,1809.0,273.15,-25.16,80.67,C4H5F3O2,ethyl trifluoroacetate,383-63-1,217.40727996017537,ML
CC(F)(F)CC(F)(F)F,3,6.579146407719209,1759.7636,244.903,-36.89,35.4,C4H5F5,"1,1,1,3,3-pentafluorobutane",406-58-6,239.0,Yaw