smiles,code,A [log10(atm)],B [C],C [C],TMIN [C],TMAX [C],FORMULA,NAME,CAS No,mp [K],mp_type
CCCC(C)CC=CC(C)C=O,2,3.626916407719208,1606.6502,195.738,95.97,287.34,C11H20O,"2,6-dimethyl-3-nonenal",---,270.65,Yaw
CCC(C)CCC=CC(C)C=O,2,3.626916407719208,1606.6502,195.738,95.97,287.34,C11H20O,"2,7-dimethyl-3-nonenal",---,270.65,Yaw
CC(C=O)C=CCCCC(C)C,2,3.626916407719208,1606.6502,195.738,95.97,287.34,C11H20O,"2,8-dimethyl-3-nonenal",---,270.65,Yaw
CCCCC=CCC(C)(C)C=O,2,3.626916407719208,1606.6502,195.738,95.97,287.34,C11H20O,"2,2-dimethyl-4-nonenal",---,270.65,Yaw
CCCCC=CC(C)C(C)C=O,2,3.626916407719208,1606.6502,195.738,95.97,287.34,C11H20O,"2,3-dimethyl-4-nonenal",---,270.65,Yaw
CCCCC=C(C)CC(C)C=O,2,3.626916407719208,1606.6502,195.738,95.97,287.34,C11H20O,"2,4-dimethyl-4-nonenal",---,270.65,Yaw
CCCCC(C)=CCC(C)C=O,2,3.626916407719208,1606.6502,195.738,95.97,287.34,C11H20O,"2,5-dimethyl-4-nonenal",---,270.65,Yaw
CCCC(C)C=CCC(C)C=O,2,3.626916407719208,1606.6502,195.738,95.97,287.34,C11H20O,"2,6-dimethyl-4-nonenal",---,270.65,Yaw
CCC(C)CC=CCC(C)C=O,2,3.626916407719208,1606.6502,195.738,95.97,287.34,C11H20O,"2,7-dimethyl-4-nonenal",---,270.65,Yaw
CC(C)CCC=CCC(C)C=O,2,3.626916407719208,1606.6502,195.738,95.97,287.34,C11H20O,"2,8-dimethyl-4-nonenal",---,270.65,Yaw
CCCC=CCCC(C)(C)C=O,2,3.626916407719208,1606.6502,195.738,95.97,287.34,C11H20O,"2,2-dimethyl-5-nonenal",---,270.65,Yaw
CCCC=CCC(C)C(C)C=O,2,3.626916407719208,1606.6502,195.738,95.97,287.34,C11H20O,"2,3-dimethyl-5-nonenal",---,270.65,Yaw
CCCC=CC(C)CC(C)C=O,2,3.626916407719208,1606.6502,195.738,95.97,287.34,C11H20O,"2,4-dimethyl-5-nonenal",---,270.65,Yaw
CCCC=C(C)CCC(C)C=O,2,3.626916407719208,1606.6502,195.738,95.97,287.34,C11H20O,"2,5-dimethyl-5-nonenal",---,270.65,Yaw
CCCC(C)=CCCC(C)C=O,2,3.626916407719208,1606.6502,195.738,95.97,287.34,C11H20O,"2,6-dimethyl-5-nonenal",---,270.65,Yaw
CCC(C)C=CCCC(C)C=O,2,3.626916407719208,1606.6502,195.738,95.97,287.34,C11H20O,"2,7-dimethyl-5-nonenal",---,270.65,Yaw
CC(C)CC=CCCC(C)C=O,2,3.626916407719208,1606.6502,195.738,95.97,287.34,C11H20O,"2,8-dimethyl-5-nonenal",---,270.65,Yaw
CCC=CCCCC(C)(C)C=O,2,3.626916407719208,1606.6502,195.738,95.97,287.34,C11H20O,"2,2-dimethyl-6-nonenal",---,270.65,Yaw
CCC=CCCC(C)C(C)C=O,2,3.626916407719208,1606.6502,195.738,95.97,287.34,C11H20O,"2,3-dimethyl-6-nonenal",---,270.65,Yaw
CCC=CCC(C)CC(C)C=O,2,3.626916407719208,1606.6502,195.738,95.97,287.34,C11H20O,"2,4-dimethyl-6-nonenal",---,270.65,Yaw
CCC=CC(C)CCC(C)C=O,2,3.626916407719208,1606.6502,195.738,95.97,287.34,C11H20O,"2,5-dimethyl-6-nonenal",---,270.65,Yaw
CCC=C(C)CCCC(C)C=O,2,3.626916407719208,1606.6502,195.738,95.97,287.34,C11H20O,"2,6-dimethyl-6-nonenal",---,270.65,Yaw
CCC(C)=CCCCC(C)C=O,2,3.626916407719208,1606.6502,195.738,95.97,287.34,C11H20O,"2,7-dimethyl-6-nonenal",---,270.65,Yaw
CC(C)C=CCCCC(C)C=O,2,3.626916407719208,1606.6502,195.738,95.97,287.34,C11H20O,"2,8-dimethyl-6-nonenal",---,270.65,Yaw
CC=CCCCCC(C)(C)C=O,2,3.626916407719208,1606.6502,195.738,95.97,287.34,C11H20O,"2,2-dimethyl-7-nonenal",---,270.65,Yaw
CC=CCCCC(C)C(C)C=O,2,3.626916407719208,1606.6502,195.738,95.97,287.34,C11H20O,"2,3-dimethyl-7-nonenal",---,270.65,Yaw
CC=CCCC(C)CC(C)C=O,2,3.626916407719208,1606.6502,195.738,95.97,287.34,C11H20O,"2,4-dimethyl-7-nonenal",---,270.65,Yaw
CC=CCC(C)CCC(C)C=O,2,3.626916407719208,1606.6502,195.738,95.97,287.34,C11H20O,"2,5-dimethyl-7-nonenal",---,270.65,Yaw
CC=CC(C)CCCC(C)C=O,2,3.626916407719208,1606.6502,195.738,95.97,287.34,C11H20O,"2,6-dimethyl-7-nonenal",---,270.65,Yaw
CC=C(C)CCCCC(C)C=O,2,3.626916407719208,1606.6502,195.738,95.97,287.34,C11H20O,"2,7-dimethyl-7-nonenal",---,270.65,Yaw
CC(C)=CCCCCC(C)C=O,2,3.626916407719208,1606.6502,195.738,95.97,287.34,C11H20O,"2,8-dimethyl-7-nonenal",---,270.65,Yaw
C=CCCCCCC(C)(C)C=O,2,3.626916407719208,1606.6502,195.738,95.97,287.34,C11H20O,"2,2-dimethyl-8-nonenal",---,270.65,Yaw
C=CCCCCC(C)C(C)C=O,2,3.626916407719208,1606.6502,195.738,95.97,287.34,C11H20O,"2,3-dimethyl-8-nonenal",---,270.65,Yaw
C=CCCCC(C)CC(C)C=O,2,3.626916407719208,1606.6502,195.738,95.97,287.34,C11H20O,"2,4-dimethyl-8-nonenal",---,270.65,Yaw
C=CCCC(C)CCC(C)C=O,2,3.626916407719208,1606.6502,195.738,95.97,287.34,C11H20O,"2,5-dimethyl-8-nonenal",---,270.65,Yaw
C=CCC(C)CCCC(C)C=O,2,3.626916407719208,1606.6502,195.738,95.97,287.34,C11H20O,"2,6-dimethyl-8-nonenal",---,270.65,Yaw
C=CC(C)CCCCC(C)C=O,2,3.626916407719208,1606.6502,195.738,95.97,287.34,C11H20O,"2,7-dimethyl-8-nonenal",---,270.65,Yaw
C=C(C)CCCCCC(C)C=O,2,3.626916407719208,1606.6502,195.738,95.97,287.34,C11H20O,"2,8-dimethyl-8-nonenal",---,270.65,Yaw
CCCCCCCCC=CC(=O)O,2,4.012636407719208,1943.9852,178.085,151.77,345.67,C11H20O2,2-undecenoic acid,---,281.65,Yaw
CCCCCCCC=CCC(=O)O,2,4.012636407719208,1943.9852,178.085,151.77,345.67,C11H20O2,3-undecenoic acid,---,286.78,Yaw
CCCCCCC=CCCC(=O)O,2,4.012636407719208,1943.9852,178.085,151.77,345.67,C11H20O2,4-undecenoic acid,---,286.78,Yaw
CCCCCC=CCCCC(=O)O,2,4.012636407719208,1943.9852,178.085,151.77,345.67,C11H20O2,5-undecenoic acid,---,286.78,Yaw
CCCCC=CCCCCC(=O)O,2,4.012636407719208,1943.9852,178.085,151.77,345.67,C11H20O2,6-undecenoic acid,---,286.78,Yaw
CCCC=CCCCCCC(=O)O,2,4.012636407719208,1943.9852,178.085,151.77,345.67,C11H20O2,7-undecenoic acid,---,286.78,Yaw
CCC=CCCCCCCC(=O)O,2,4.012636407719208,1943.9852,178.085,151.77,345.67,C11H20O2,8-undecenoic acid,---,286.78,Yaw
CC=CCCCCCCCC(=O)O,2,4.012636407719208,1943.9852,178.085,151.77,345.67,C11H20O2,9-undecenoic acid,---,286.78,Yaw
C/C=C\CCCCCCCC(=O)O,2,3.788156407719209,1844.3432,180.49,144.85,348.41,C11H20O2,cis-9-undecenoic acid,116836-30-7,275.65,Yaw
C=CCCCCCCCCC(=O)O,2,3.867646407719208,1879.6547,179.614,147.37,347.4,C11H20O2,10-undecenoic acid,112-38-9,297.65,Yaw
CCCCCCCC=C(C)C(=O)O,2,3.804356407719209,1851.542,180.309,145.37,348.2,C11H20O2,2-methyl-2-decenoic acid,---,286.78,Yaw
CCCCCCCC(C)=CC(=O)O,2,3.804356407719209,1851.542,180.309,145.37,348.2,C11H20O2,3-methyl-2-decenoic acid,---,286.78,Yaw
CCCCCCC(C)C=CC(=O)O,2,3.804356407719209,1851.542,180.309,145.37,348.2,C11H20O2,4-methyl-2-decenoic acid,---,286.78,Yaw
CCCCCC(C)CC=CC(=O)O,2,3.804356407719209,1851.542,180.309,145.37,348.2,C11H20O2,5-methyl-2-decenoic acid,---,286.78,Yaw
CCCCC(C)CCC=CC(=O)O,2,3.804356407719209,1851.542,180.309,145.37,348.2,C11H20O2,6-methyl-2-decenoic acid,---,286.78,Yaw
CCCC(C)CCCC=CC(=O)O,2,3.804356407719209,1851.542,180.309,145.37,348.2,C11H20O2,7-methyl-2-decenoic acid,---,286.78,Yaw
CCC(C)CCCCC=CC(=O)O,2,3.804356407719209,1851.542,180.309,145.37,348.2,C11H20O2,8-methyl-2-decenoic acid,---,286.78,Yaw
CC(C)CCCCCC=CC(=O)O,2,3.804356407719209,1851.542,180.309,145.37,348.2,C11H20O2,9-methyl-2-decenoic acid,---,286.78,Yaw
CCCCCCC=CC(C)C(=O)O,2,3.804356407719209,1851.542,180.309,145.37,348.2,C11H20O2,2-methyl-3-decenoic acid,---,286.78,Yaw
CCCCCCC=C(C)CC(=O)O,2,3.804356407719209,1851.542,180.309,145.37,348.2,C11H20O2,3-methyl-3-decenoic acid,---,286.78,Yaw
CCCCCCC(C)=CCC(=O)O,2,3.804356407719209,1851.542,180.309,145.37,348.2,C11H20O2,4-methyl-3-decenoic acid,---,286.78,Yaw
CCCCCC(C)C=CCC(=O)O,2,3.804356407719209,1851.542,180.309,145.37,348.2,C11H20O2,5-methyl-3-decenoic acid,---,286.78,Yaw
CCCCC(C)CC=CCC(=O)O,2,3.804356407719209,1851.542,180.309,145.37,348.2,C11H20O2,6-methyl-3-decenoic acid,---,286.78,Yaw
CCCC(C)CCC=CCC(=O)O,2,3.804356407719209,1851.542,180.309,145.37,348.2,C11H20O2,7-methyl-3-decenoic acid,---,286.78,Yaw
CCC(C)CCCC=CCC(=O)O,2,3.804356407719209,1851.542,180.309,145.37,348.2,C11H20O2,8-methyl-3-decenoic acid,---,286.78,Yaw