smiles,code,A [log10(atm)],B [C],C [C],TMIN [C],TMAX [C],FORMULA,NAME,CAS No,mp [K],mp_type
C=CC(C)(C)CCCCC,2,4.513816407719209,1704.2995,210.75,55.77,193.8,C10H20,"3,3-dimethyl-1-octene",---,216.22,Yaw
C=CC(C)C(C)CCCC,2,4.513816407719209,1704.2995,210.75,55.77,193.8,C10H20,"3,4-dimethyl-1-octene",---,216.22,Yaw
C=CC(C)CC(C)CCC,2,4.513816407719209,1704.2995,210.75,55.77,193.8,C10H20,"3,5-dimethyl-1-octene",---,216.22,Yaw
C=CC(C)CCC(C)CC,2,4.513816407719209,1704.2995,210.75,55.77,193.8,C10H20,"3,6-dimethyl-1-octene",---,216.22,Yaw
C=CC(C)CCCC(C)C,2,4.0391164077192085,1535.1695,213.252,46.07,197.43,C10H20,"3,7-dimethyl-1-octene",4984-01-4,216.22,Yaw
CCC(C)CCC=C(C)C,2,4.3730364077192085,1651.1429,210.75,53.27,194.74,C10H20,"2,6-dimethyl-2-octene",4057-42-5,216.22,Yaw
CC=C(C)C(C)CCCC,2,4.513816407719209,1704.2995,210.75,55.77,193.8,C10H20,"3,4-dimethyl-2-octene",---,216.22,Yaw
CC=CC(C)(C)CCCC,2,4.513816407719209,1704.2995,210.75,55.77,193.8,C10H20,"4,4-dimethyl-2-octene",---,216.22,Yaw
CC=CC(C)C(C)CCC,2,4.513816407719209,1704.2995,210.75,55.77,193.8,C10H20,"4,5-dimethyl-2-octene",---,216.22,Yaw
CC=CC(C)CC(C)CC,2,4.513816407719209,1704.2995,210.75,55.77,193.8,C10H20,"4,6-dimethyl-2-octene",---,216.22,Yaw
CC=CC(C)CCC(C)C,2,4.513816407719209,1704.2995,210.75,55.77,193.8,C10H20,"4,7-dimethyl-2-octene",---,216.22,Yaw
CCCCC=CC(C)(C)C,2,4.513816407719209,1704.2995,210.75,55.77,193.8,C10H20,"2,2-dimethyl-3-octene",19482-57-6,216.22,Yaw
CC(C)(C)C=CC(C)(C)C,2,3.173256407719209,1232.2775,221.509,-4.5,207.52,C10H20,"2,2,5,5-tetramethyl-3-hexene",22808-06-6,268.65,Yaw
C=C(CC)CCCCCC,2,4.818696407719209,1810.0343,208.804,61.37,191.85,C10H20,2-ethyl-1-octene,---,216.22,Yaw
C=CC(CC)CCCCC,2,4.818696407719209,1810.0343,208.804,61.37,191.85,C10H20,3-ethyl-1-octene,---,216.22,Yaw
C=CCC(CC)CCCC,2,4.818696407719209,1810.0343,208.804,61.37,191.85,C10H20,4-ethyl-1-octene,---,216.22,Yaw
C=CCCC(CC)CCC,2,4.818696407719209,1810.0343,208.804,61.37,191.85,C10H20,5-ethyl-1-octene,---,216.22,Yaw
C=CCCCC(CC)CC,2,4.818696407719209,1810.0343,208.804,61.37,191.85,C10H20,6-ethyl-1-octene,---,216.22,Yaw
CCC=CC(C)(CC)CC,2,4.8416464077192085,1817.9849,208.666,61.77,191.72,C10H20,5-ethyl-5-methyl-3-heptene,61228-10-2,216.22,Yaw
CC(C)(C)/C=C\C(C)(C)C,2,4.675656407719209,1760.4592,209.692,58.81,192.73,C10H20,"cis-1,2-di-tert-butylethene",692-47-7,216.22,Yaw
CCC=C(CCC)CCC,"1,2",4.5236564077192085,1682.5511,211.445,51.27,187.02,C10H20,4-propyl-3-heptene,4485-13-6,216.22,Yaw
CCC1(CC)CCCCC1,"1,2",4.233146407719208,1611.9828,206.95,56.71,203.0,C10H20,"1,1-diethylcyclohexane",78-01-3,173.15,Yaw
CC1CCC(C)C(C)C1C,"1,2",4.167616407719208,1592.7468,207.122,56.21,204.8,C10H20,"1,2,3,4-tetramethylcyclohexane",3726-45-2,188.82,Yaw
CCCCCCCCCC(Br)Br,2,4.905096407719209,2219.4835,178.502,148.57,303.57,C10H20Br2,"1,1-dibromodecane",59104-80-2,286.3935049768754,ML
CCCCCCCCC(Br)CBr,"1,2",4.704826407719208,2056.488,186.386,125.88,280.59,C10H20Br2,"1,2-dibromodecane",28467-71-2,290.79616121314695,ML
CCCCCCCC(Br)CCBr,2,4.984346407719209,2252.57,177.946,150.17,303.03,C10H20Br2,"1,3-dibromodecane",---,289.63487918790685,ML
CCCCCCC(Br)CCCBr,2,5.0247364077192085,2269.4294,177.668,150.97,302.77,C10H20Br2,"1,4-dibromodecane",---,288.3547447770171,ML
CCCCCC(Br)CCCCBr,2,5.065666407719209,2286.505,177.39,151.77,302.5,C10H20Br2,"1,5-dibromodecane",---,288.465641824052,ML
CCCCC(Br)CCCCCBr,2,5.107126407719209,2303.8012,177.112,152.57,302.24,C10H20Br2,"1,6-dibromodecane",---,288.396611982869,ML
CCCC(Br)CCCCCCBr,2,5.1491464077192095,2321.3222,176.834,153.37,301.98,C10H20Br2,"1,7-dibromodecane",---,289.42662496689724,ML
CCC(Br)CCCCCCCBr,2,5.191716407719209,2339.0727,176.556,154.17,301.71,C10H20Br2,"1,8-dibromodecane",---,288.73171205369636,ML
CC(Br)CCCCCCCCBr,2,5.234866407719208,2357.0573,176.278,154.97,301.45,C10H20Br2,"1,9-dibromodecane",---,290.00642188241153,ML
BrCCCCCCCCCCBr,2,5.278596407719208,2375.2806,176.0,155.77,301.2,C10H20Br2,"1,10-dibromodecane",4101-68-2,301.15,Yaw
CCCCCCCCC(C)(Br)Br,2,4.572156407719208,2080.2704,181.004,141.37,306.05,C10H20Br2,"2,2-dibromodecane",---,285.1078122337363,ML
CCCCCCCC(Br)C(C)Br,2,4.607346407719208,2095.004,180.726,142.17,305.77,C10H20Br2,"2,3-dibromodecane",---,284.6277859103332,ML
CCCCCCC(Br)CC(C)Br,2,4.642976407719209,2109.9134,180.448,142.97,305.49,C10H20Br2,"2,4-dibromodecane",---,285.40289051737926,ML
CCCCCC(Br)CCC(C)Br,2,4.679046407719208,2125.0019,180.17,143.77,305.21,C10H20Br2,"2,5-dibromodecane",---,285.9869966667984,ML
CCCCC(Br)CCCC(C)Br,2,4.715556407719209,2140.2726,179.892,144.57,304.93,C10H20Br2,"2,6-dibromodecane",---,285.1169497527274,ML
CCCC(Br)CCCCC(C)Br,2,4.752516407719209,2155.7291,179.614,145.37,304.66,C10H20Br2,"2,7-dibromodecane",---,286.8233939653168,ML
CCC(Br)CCCCCC(C)Br,2,4.789946407719208,2171.3748,179.336,146.17,304.38,C10H20Br2,"2,8-dibromodecane",---,285.93315173317507,ML
CC(Br)CCCCCCC(C)Br,2,4.827846407719209,2187.2133,179.058,146.97,304.11,C10H20Br2,"2,9-dibromodecane",---,286.5961507505089,ML
CCCCC(Br)C(Br)CCCC,2,4.866226407719209,2203.2483,178.78,147.77,303.84,C10H20Br2,"5,6-dibromodecane",77928-86-0,288.00706750907125,ML
FCCCCCCCCCCCl,2,4.933976407719209,2161.3394,183.784,133.37,282.73,C10H20ClF,1-chloro-10-fluorodecane,334-62-3,271.3529198662605,ML
CCCCCCCCCC(Cl)Cl,2,4.385476407719208,1976.1883,187.398,127.97,296.43,C10H20Cl2,"1,1-dichlorodecane",3162-62-7,276.6976392152478,ML
CCCCCCCCC(Cl)CCl,2,4.192996407719209,1888.2891,187.12,123.77,298.06,C10H20Cl2,"1,2-dichlorodecane",---,285.7644427006819,ML
CCCCCCCC(Cl)CCCl,2,4.224276407719208,1901.1987,186.842,124.57,297.76,C10H20Cl2,"1,3-dichlorodecane",---,281.20755132260734,ML
CCCCCCC(Cl)CCCCl,2,4.255906407719209,1914.254,186.564,125.37,297.46,C10H20Cl2,"1,4-dichlorodecane",---,281.54467239957825,ML
CCCCCC(Cl)CCCCCl,2,4.287916407719209,1927.4579,186.286,126.17,297.16,C10H20Cl2,"1,5-dichlorodecane",---,281.35140866884876,ML
CCCCC(Cl)CCCCCCl,2,4.3202964077192085,1940.8127,186.008,126.97,296.87,C10H20Cl2,"1,6-dichlorodecane",---,281.664671270778,ML
CCCC(Cl)CCCCCCCl,2,4.353056407719208,1954.3213,185.73,127.77,296.58,C10H20Cl2,"1,7-dichlorodecane",---,282.47925902388107,ML
CCC(Cl)CCCCCCCCl,2,4.386216407719209,1967.9864,185.452,128.57,296.29,C10H20Cl2,"1,8-dichlorodecane",---,283.1048175116733,ML
CC(Cl)CCCCCCCCCl,2,4.419766407719209,1981.8107,185.174,129.37,296.0,C10H20Cl2,"1,9-dichlorodecane",---,282.73920223905833,ML
ClCCCCCCCCCCCl,2,4.453716407719209,1995.7971,184.896,130.17,295.71,C10H20Cl2,"1,10-dichlorodecane",2162-98-3,288.75,Yaw
CCCCCCCCC(C)(Cl)Cl,2,3.871266407719209,1755.2368,190.178,114.97,301.45,C10H20Cl2,"2,2-dichlorodecane",---,274.6598879352328,ML
CCCCCCCC(Cl)C(C)Cl,2,3.898926407719209,1766.6948,189.9,115.77,301.14,C10H20Cl2,"2,3-dichlorodecane",---,283.4162177242212,ML
CCCCCCC(Cl)CC(C)Cl,2,3.926886407719208,1778.274,189.622,116.57,300.82,C10H20Cl2,"2,4-dichlorodecane",---,283.1717003012773,ML
CCCCCC(Cl)CCC(C)Cl,2,3.955156407719208,1789.9765,189.344,117.37,300.51,C10H20Cl2,"2,5-dichlorodecane",---,283.4254398502374,ML
CCCCC(Cl)CCCC(C)Cl,2,3.9837464077192086,1801.8043,189.066,118.17,300.19,C10H20Cl2,"2,6-dichlorodecane",---,283.0032605063484,ML
CCCC(Cl)CCCCC(C)Cl,2,4.012636407719208,1813.7595,188.788,118.97,299.88,C10H20Cl2,"2,7-dichlorodecane",---,283.82829013683335,ML
CCC(Cl)CCCCCC(C)Cl,2,4.041866407719208,1825.8443,188.51,119.77,299.57,C10H20Cl2,"2,8-dichlorodecane",---,284.7044807517689,ML
CC(Cl)CCCCCCC(C)Cl,2,4.071406407719208,1838.0608,188.232,120.57,299.27,C10H20Cl2,"2,9-dichlorodecane",---,283.4511679647119,ML
CCN(CC)C1=[S][Co+2]2([S]=C(N(CC)CC)[S-]2)[S-]1,3,13.59718640771921,9273.0,273.15,325.96,424.27,C10H20CoN2S4,bis(diethylthio-carbamate)cobalt,15974-34-2,433.3422568327907,ML
CCN(CC)C1=[S][Cu+2]2([S]=C(N(CC)CC)[S-]2)[S-]1,3,12.347186407719208,7789.0,273.15,274.29,373.45,C10H20CuN2S4,bis(diethyldithio-carbamate)copper,13681-87-3,436.2484402470387,ML
CCCCCCCCCC(F)F,3,3.732486407719208,1582.727,205.19,76.77,256.05,C10H20F2,"1,1-difluorodecane",62127-43-9,239.66141161024893,ML
CCCCCCCCC(F)CF,3,3.760566407719209,1593.5905,204.912,77.57,255.72,C10H20F2,"1,2-difluorodecane",---,242.44685163587323,ML
CCCCCCCC(F)CCF,3,3.788976407719209,1604.5738,204.634,78.37,255.4,C10H20F2,"1,3-difluorodecane",---,242.7611603451646,ML
CCCCCCC(F)CCCF,3,3.817706407719209,1615.6789,204.356,79.17,255.08,C10H20F2,"1,4-difluorodecane",---,242.48443685895828,ML
CCCCCC(F)CCCCF,3,3.846766407719208,1626.9082,204.078,79.97,254.76,C10H20F2,"1,5-difluorodecane",---,243.37071690022904,ML
CCCCC(F)CCCCCF,3,3.876156407719209,1638.2635,203.8,80.77,254.44,C10H20F2,"1,6-difluorodecane",---,243.45244772127174,ML
CCCC(F)CCCCCCF,3,3.905896407719209,1649.7473,203.522,81.57,254.12,C10H20F2,"1,7-difluorodecane",---,243.05122535140356,ML
CCC(F)CCCCCCCF,3,3.935986407719208,1661.3616,203.244,82.37,253.81,C10H20F2,"1,8-difluorodecane",---,243.5772588662079,ML
CC(F)CCCCCCCCF,3,3.966426407719209,1673.1089,202.966,83.17,253.49,C10H20F2,"1,9-difluorodecane",---,245.0010071568677,ML
FCCCCCCCCCCF,3,3.9972364077192086,1684.9915,202.688,83.97,253.18,C10H20F2,"1,10-difluorodecane",---,259.5673644966419,ML
CCCCCCCCC(C)(F)F,3,3.4681064077192083,1480.2622,207.97,68.77,259.42,C10H20F2,"2,2-difluorodecane",---,236.40841835157244,ML
CCCCCCCC(F)C(C)F,3,3.493266407719209,1490.031,207.692,69.57,259.07,C10H20F2,"2,3-difluorodecane",---,236.02103237983115,ML
CCCCCCC(F)CC(C)F,3,3.5187064077192085,1499.9013,207.414,70.37,258.73,C10H20F2,"2,4-difluorodecane",---,239.6876944419762,ML
CCCCCC(F)CCC(C)F,3,3.5444164077192086,1509.8749,207.136,71.17,258.39,C10H20F2,"2,5-difluorodecane",---,239.1799148219453,ML
CCCCC(F)CCCC(C)F,3,3.570406407719209,1519.9533,206.858,71.97,258.05,C10H20F2,"2,6-difluorodecane",---,240.39756691580965,ML
CCCC(F)CCCCC(C)F,3,3.596676407719209,1530.1385,206.58,72.77,257.71,C10H20F2,"2,7-difluorodecane",---,240.2614516972407,ML
CCC(F)CCCCCC(C)F,3,3.623236407719209,1540.432,206.302,73.57,257.37,C10H20F2,"2,8-difluorodecane",---,241.04890317258491,ML
CC(F)CCCCCCC(C)F,3,3.650096407719209,1550.8358,206.024,74.37,257.04,C10H20F2,"2,9-difluorodecane",---,240.80081153433184,ML
CCCCCCCCCC(I)I,2,4.948236407719208,2476.6331,162.212,200.45,370.72,C10H20I2,"1,1-diiododecane",66291-57-4,294.65,Yaw
CCCCCCCCC(I)CI,2,4.984286407719209,2493.2901,161.934,201.25,370.45,C10H20I2,"1,2-diiododecane",---,294.65,Yaw
CCCCCCCC(I)CCI,2,5.020756407719209,2510.1388,161.656,202.05,370.18,C10H20I2,"1,3-diiododecane",---,294.65,Yaw
CCCCCCC(I)CCCI,2,5.057656407719208,2527.1825,161.378,202.85,369.92,C10H20I2,"1,4-diiododecane",---,294.65,Yaw
CCCCCC(I)CCCCI,2,5.094996407719209,2544.4247,161.1,203.65,369.66,C10H20I2,"1,5-diiododecane",---,294.65,Yaw
CCCCC(I)CCCCCI,2,5.132786407719209,2561.8689,160.822,204.45,369.39,C10H20I2,"1,6-diiododecane",---,294.65,Yaw
CCCC(I)CCCCCCI,2,5.171026407719209,2579.5188,160.544,205.25,369.13,C10H20I2,"1,7-diiododecane",---,294.65,Yaw
CCC(I)CCCCCCCI,2,5.209736407719209,2597.3781,160.266,206.05,368.87,C10H20I2,"1,8-diiododecane",---,294.65,Yaw
CC(I)CCCCCCCCI,2,5.248916407719209,2615.4506,159.988,206.85,368.61,C10H20I2,"1,9-diiododecane",---,294.65,Yaw
ICCCCCCCCCCI,2,4.609496407719209,2319.9068,164.992,192.45,373.46,C10H20I2,"1,10-diiododecane",16355-92-3,304.65,Yaw
CCCCCCCCC(C)(I)I,2,4.641686407719209,2334.8184,164.714,193.25,373.18,C10H20I2,"2,2-diiododecane",---,294.65,Yaw
CCCCCCCC(I)C(C)I,2,4.674236407719208,2349.8916,164.436,194.05,372.9,C10H20I2,"2,3-diiododecane",---,294.65,Yaw
CCCCCCC(I)CC(C)I,2,4.707156407719209,2365.1291,164.158,194.85,372.62,C10H20I2,"2,4-diiododecane",---,294.65,Yaw
CCCCCC(I)CCC(C)I,2,4.7404364077192085,2380.5337,163.88,195.65,372.35,C10H20I2,"2,5-diiododecane",---,294.65,Yaw
CCCCC(I)CCCC(C)I,2,4.774086407719208,2396.1082,163.602,196.45,372.07,C10H20I2,"2,6-diiododecane",---,294.65,Yaw
CCCC(I)CCCCC(C)I,2,4.808126407719208,2411.8555,163.324,197.25,371.8,C10H20I2,"2,7-diiododecane",---,294.65,Yaw
CCC(I)CCCCCC(C)I,2,4.842556407719209,2427.7786,163.046,198.05,371.53,C10H20I2,"2,8-diiododecane",---,294.65,Yaw
CC(I)CCCCCCC(C)I,2,4.8773764077192086,2443.8805,162.768,198.85,371.26,C10H20I2,"2,9-diiododecane",---,294.65,Yaw
CCN(CC)C1=[S][Ni+2]2([S]=C(N(CC)CC)[S-]2)[S-]1,3,12.097186407719208,7940.0,273.15,294.89,399.95,C10H20N2NiS4,bis(diethyldithio-carbamate)nickel,14267-17-5,403.8231447550232,ML
CCN(CC)C1=[S][Pb+2]2([S]=C(N(CC)CC)[S-]2)[S-]1,3,9.549186407719208,6785.0,273.15,320.46,460.51,C10H20N2PbS4,bis(diethyldithio-carbamate)lead,17549-30-3,455.13169361522404,ML
CCN(CC)C1=[S][Zn+2]2([S]=C(N(CC)CC)[S-]2)[S-]1,3,12.38418640771921,7477.0,273.15,251.0,345.65,C10H20N2S4Zn,zinc diethyldithiocarbamate,14324-55-1,449.65,Yaw
CCCCC1CCCCC1O,2,4.135976407719209,1773.8361,198.345,96.47,264.2,C10H20O,2-butylcyclohexanol,36159-49-6,339.96,Yaw
CC(C)(C)C1CCCCC1O,2,4.135976407719209,1773.8361,198.345,96.47,264.2,C10H20O,2-tert-butylcyclohexanol,13491-79-7,318.15,Yaw
CC(C)(C)C1CCC(O)CC1,2,4.135976407719209,1773.8361,198.345,96.47,264.2,C10H20O,4-tert-butylcyclohexanol; (cis+trans),98-52-2,338.15,Yaw
CC(C)C1CCC(C)(O)CC1,2,4.164126407719209,1784.8961,198.101,66.81,263.94,C10H20O,1-methyl-4-isopropylcyclohexanol,21129-27-1,339.96,Yaw
CC(C)C1CCC(C)C(O)C1,2,4.471796407719209,1905.5878,195.599,66.81,261.29,C10H20O,"2-methyl-5-isopropylcyclohexanol, [1R-(1alpha,2alpha,5beta)]",5563-78-0,339.96,Yaw
CCCC1(O)CCCCC1C,2,4.135976407719209,1773.8361,198.345,96.47,264.2,C10H20O,2-methyl-1-propylcyclohexanol,24580-48-1,339.96,Yaw
CCCC1(O)CCCC(C)C1,2,3.8734564077192086,1670.5345,200.742,66.81,266.88,C10H20O,3-methyl-1-propylcyclohexanol,24580-52-7,339.96,Yaw
CCCCCCCCCC=O,"1,2",4.856706407719209,1974.3112,197.962,95.07,235.41,C10H20O,decanal,112-31-2,267.15,Yaw
CCCCCCCC(C)C=O,2,4.526206407719209,1855.8653,199.491,90.17,239.75,C10H20O,2-methylnonanal,---,267.15,Yaw
CCCCCCC(C)CC=O,2,4.526206407719209,1855.8653,199.491,90.17,239.75,C10H20O,3-methylnonanal,65899-13-0,267.15,Yaw
CCCCCC(C)CCC=O,2,4.526206407719209,1855.8653,199.491,90.17,239.75,C10H20O,4-methylnonanal,94088-30-9,267.15,Yaw
CCCCC(C)CCCC=O,2,4.526206407719209,1855.8653,199.491,90.17,239.75,C10H20O,5-methylnonanal,---,267.15,Yaw
CCCC(C)CCCCC=O,2,4.526206407719209,1855.8653,199.491,90.17,239.75,C10H20O,6-methylnonanal,---,267.15,Yaw
CCC(C)CCCCCC=O,2,4.526206407719209,1855.8653,199.491,90.17,239.75,C10H20O,7-methylnonanal,---,267.15,Yaw
CC(C)CCCCCCC=O,2,4.526206407719209,1855.8653,199.491,90.17,239.75,C10H20O,8-methylnonanal,1321-89-7,267.15,Yaw
CCCCCCC(C)(C)C=O,2,4.319746407719209,1777.9368,201.048,85.69,241.37,C10H20O,"2,2-dimethyloctanal",---,267.15,Yaw
CCCCCC(C)C(C)C=O,2,4.319746407719209,1777.9368,201.048,85.69,241.37,C10H20O,"2,3-dimethyloctanal",---,267.15,Yaw
CCCCC(C)CC(C)C=O,2,4.319746407719209,1777.9368,201.048,85.69,241.37,C10H20O,"2,4-dimethyloctanal",---,267.15,Yaw
CCCC(C)CCC(C)C=O,2,4.319746407719209,1777.9368,201.048,85.69,241.37,C10H20O,"2,5-dimethyloctanal",---,267.15,Yaw
CCC(C)CCCC(C)C=O,2,4.319746407719209,1777.9368,201.048,85.69,241.37,C10H20O,"2,6-dimethyloctanal",1321-89-7,267.15,Yaw
CC(C)CCCCC(C)C=O,2,4.319746407719209,1777.9368,201.048,85.69,241.37,C10H20O,"2,7-dimethyloctanal",---,267.15,Yaw
CCCCCCCCC(C)=O,"1,2",4.493566407719209,1840.0215,197.629,91.03,241.25,C10H20O,2-decanone,693-54-9,276.25,Yaw
CCCCCCCC(=O)CC,"1,2",4.492326407719209,1815.7087,199.63,85.27,233.58,C10H20O,3-decanone,928-80-3,274.45,Yaw
CCCCCCC(=O)CCC,"1,2",4.551656407719209,1844.3656,198.657,88.07,235.25,C10H20O,4-decanone,624-16-8,264.15,Yaw
CCCCCC(=O)CCCC,"1,2",4.553946407719208,1836.2877,199.38,85.99,232.39,C10H20O,5-decanone,820-29-1,263.95,Yaw
CCCCCCC(C)C(C)=O,2,4.344266407719209,1764.6163,200.659,82.81,235.78,C10H20O,3-methyl-2-nonanone,---,269.7,Yaw
CCCCCC(C)CC(C)=O,2,4.344266407719209,1764.6163,200.659,82.81,235.78,C10H20O,4-methyl-2-nonanone,---,269.7,Yaw
CCCCC(C)CCC(C)=O,2,4.344266407719209,1764.6163,200.659,82.81,235.78,C10H20O,5-methyl-2-nonanone,---,269.7,Yaw
CCCC(C)CCCC(C)=O,2,4.344266407719209,1764.6163,200.659,82.81,235.78,C10H20O,6-methyl-2-nonanone,---,269.7,Yaw
CCC(C)CCCCC(C)=O,2,4.344266407719209,1764.6163,200.659,82.81,235.78,C10H20O,7-methyl-2-nonanone,---,269.7,Yaw
CC(=O)CCCCCC(C)C,2,4.344266407719209,1764.6163,200.659,82.81,235.78,C10H20O,8-methyl-2-nonanone,---,269.7,Yaw
CCCCCCC(=O)C(C)C,"1,2",4.549546407719209,1821.4377,200.506,82.75,228.22,C10H20O,2-methyl-3-nonanone,5445-31-8,269.7,Yaw
CCCCCC(C)C(=O)CC,2,4.344266407719209,1764.6163,200.659,82.81,235.78,C10H20O,4-methyl-3-nonanone,---,269.7,Yaw
CCCCC(C)CC(=O)CC,2,4.344266407719209,1764.6163,200.659,82.81,235.78,C10H20O,5-methyl-3-nonanone,---,269.7,Yaw
CCCC(C)CCC(=O)CC,2,4.344266407719209,1764.6163,200.659,82.81,235.78,C10H20O,6-methyl-3-nonanone,---,269.7,Yaw
CCC(=O)CCCC(C)CC,2,4.344266407719209,1764.6163,200.659,82.81,235.78,C10H20O,7-methyl-3-nonanone,---,269.7,Yaw
CCC(=O)CCCCC(C)C,2,4.344266407719209,1764.6163,200.659,82.81,235.78,C10H20O,8-methyl-3-nonanone,---,269.7,Yaw
CCCCCC(=O)CC(C)C,2,4.344266407719209,1764.6163,200.659,82.81,235.78,C10H20O,2-methyl-4-nonanone,---,269.7,Yaw
CCCCCC(=O)C(C)CC,2,4.344266407719209,1764.6163,200.659,82.81,235.78,C10H20O,3-methyl-4-nonanone,---,269.7,Yaw
CCCCC(C)C(=O)CCC,2,4.344266407719209,1764.6163,200.659,82.81,235.78,C10H20O,5-methyl-4-nonanone,---,269.7,Yaw
CCCC(=O)CC(C)CCC,2,4.344266407719209,1764.6163,200.659,82.81,235.78,C10H20O,6-methyl-4-nonanone,---,269.7,Yaw
CCCC(=O)CCC(C)CC,2,4.344266407719209,1764.6163,200.659,82.81,235.78,C10H20O,7-methyl-4-nonanone,---,269.7,Yaw
CCCC(=O)CCCC(C)C,2,4.344266407719209,1764.6163,200.659,82.81,235.78,C10H20O,8-methyl-4-nonanone,---,269.7,Yaw
CCCCC(=O)CCC(C)C,"1,2",4.549836407719209,1833.7738,199.491,85.67,232.11,C10H20O,2-methyl-5-nonanone,22287-02-1,269.7,Yaw
CCCCC(=O)CC(C)CC,2,4.344266407719209,1764.6163,200.659,82.81,235.78,C10H20O,3-methyl-5-nonanone,---,269.7,Yaw
CCCCC(=O)C(C)CCC,2,4.009716407719209,1639.6486,203.383,74.97,238.73,C10H20O,4-methyl-5-nonanone,---,269.7,Yaw
CCCCCCCC=CCO,2,4.398486407719209,1923.2083,191.707,114.57,277.66,C10H20O,2-decen-1-ol,22104-80-9,278.05,Yaw
CCCCCCC=CCCO,2,4.381356407719209,1916.3274,191.846,114.17,277.8,C10H20O,3-decen-1-ol,69093-74-9,269.1,Yaw
CCCCCC=CCCCO,2,4.381356407719209,1916.3274,191.846,114.17,277.8,C10H20O,4-decen-1-ol,---,269.1,Yaw
CCCCC=CCCCCO,2,4.381356407719209,1916.3274,191.846,114.17,277.8,C10H20O,5-decen-1-ol,---,269.1,Yaw
CCCC=CCCCCCO,2,4.381356407719209,1916.3274,191.846,114.17,277.8,C10H20O,6-decen-1-ol,---,269.1,Yaw
CCC=CCCCCCCO,2,4.381356407719209,1916.3274,191.846,114.17,277.8,C10H20O,7-decen-1-ol,---,269.1,Yaw
CC=CCCCCCCCO,2,4.381356407719209,1916.3274,191.846,114.17,277.8,C10H20O,8-decen-1-ol,---,269.1,Yaw
C=CCCCCCCCCO,"1,2",4.860046407719208,2074.1919,190.734,116.97,264.23,C10H20O,9-decen-1-ol,13019-22-2,260.15,Yaw
CCCCCCC=CC(C)O,2,4.0591064077192085,1786.6751,194.629,106.16,280.79,C10H20O,1-methyl-2-nonen-1-ol,---,269.1,Yaw
CCCCCCC=C(C)CO,2,4.0591064077192085,1786.6751,194.629,106.16,280.79,C10H20O,2-methyl-2-nonen-1-ol,---,269.1,Yaw
CCCCCCC(C)=CCO,2,4.0591064077192085,1786.6751,194.629,106.16,280.79,C10H20O,3-methyl-2-nonen-1-ol,---,269.1,Yaw
CCCCCC(C)C=CCO,2,4.0591064077192085,1786.6751,194.629,106.16,280.79,C10H20O,4-methyl-2-nonen-1-ol,---,269.1,Yaw
CCCCC(C)CC=CCO,2,4.0591064077192085,1786.6751,194.629,106.16,280.79,C10H20O,5-methyl-2-nonen-1-ol,---,269.1,Yaw
CCCC(C)CCC=CCO,2,4.0591064077192085,1786.6751,194.629,106.16,280.79,C10H20O,6-methyl-2-nonen-1-ol,---,269.1,Yaw
CCC(C)CCCC=CCO,2,4.0591064077192085,1786.6751,194.629,106.16,280.79,C10H20O,7-methyl-2-nonen-1-ol,---,269.1,Yaw
CC(C)CCCCC=CCO,2,4.0591064077192085,1786.6751,194.629,106.16,280.79,C10H20O,8-methyl-2-nonen-1-ol,---,269.1,Yaw
CCCCCC=CCC(C)O,2,4.0591064077192085,1786.6751,194.629,106.16,280.79,C10H20O,1-methyl-3-nonen-1-ol,---,269.1,Yaw
CCCCCC=CC(C)CO,2,4.0591064077192085,1786.6751,194.629,106.16,280.79,C10H20O,2-methyl-3-nonen-1-ol,---,269.1,Yaw
CCCCCC=C(C)CCO,2,4.0591064077192085,1786.6751,194.629,106.16,280.79,C10H20O,3-methyl-3-nonen-1-ol,---,269.1,Yaw
CCCCCC(C)=CCCO,2,4.0591064077192085,1786.6751,194.629,106.16,280.79,C10H20O,4-methyl-3-nonen-1-ol,---,269.1,Yaw