smiles,code,A [log10(atm)],B [C],C [C],TMIN [C],TMAX [C],FORMULA,NAME,CAS No,mp [K],mp_type
CC=CC(=O)C(C)C,2,3.7761864077192087,1435.1272,214.92,38.77,198.05,C7H12O,2-methyl-4-hexen-3-one,53252-19-0,218.94883775168682,ML
C=CCC(C)C(C)=O,2,3.4504164077192083,1321.8699,217.978,29.97,201.74,C7H12O,3-methyl-5-hexen-2-one,2550-22-3,216.32449754366394,ML
C=CC(C)CC(C)=O,2,3.4643064077192083,1326.7076,217.839,30.37,201.57,C7H12O,4-methyl-5-hexen-2-one,61675-14-7,218.93050312599516,ML
C=CC(=O)CC(C)C,2,3.980516407719208,1505.923,213.198,43.73,196.08,C7H12O,5-methyl-1-hexen-3-one,2177-32-4,203.16088269975535,ML
CC(=O)C=CC(C)C,2,3.980516407719208,1505.923,213.198,43.73,196.08,C7H12O,5-methyl-3-hexen-2-one,5166-53-0,222.4488831379475,ML
CC(=O)CC=C(C)C,2,3.906196407719209,1480.1916,213.808,41.97,196.77,C7H12O,5-methyl-4-hexen-2-one,28332-44-7,226.63964189867795,ML
C=C(C)CCC(C)=O,"1,2",4.428796407719209,1607.2754,214.364,40.37,175.02,C7H12O,5-methyl-5-hexen-2-one,3240-09-3,223.78036003041095,ML
CC1CCCCC1=O,"1,2",4.167646407719209,1565.3575,210.597,12.33,194.24,C7H12O,2-methylcyclohexanone,583-60-8,264.0,Yaw
CC1CCCC(=O)C1,"1,2",4.065946407719209,1538.9336,208.943,16.69,199.81,C7H12O,3-methylcyclohexanone,591-24-2,198.15,Yaw
C/C=C\CCC(C)=O,"1,2",4.369786407719209,1590.7729,214.489,40.01,176.48,C7H12O,(Z)-5-hepten-2-one,4535-61-9,212.87271356421886,ML
C[C@H]1CCCC(=O)C1,"1,2",4.255046407719209,1599.6945,209.902,50.81,194.67,C7H12O,(S)-3-methylcyclohexanone,24965-87-5,248.7514850310507,ML
CCCCC#CCO,3,5.125206407719208,1978.9219,205.989,76.0,204.0,C7H12O,2-heptyn-1-ol,1002-36-4,237.9,Yaw
CCCC#CCCO,3,5.125206407719208,1978.9219,205.989,76.0,204.0,C7H12O,3-heptyn-1-ol,---,252.53,Yaw
CCC#CCCCO,3,5.125206407719208,1978.9219,205.989,76.0,204.0,C7H12O,4-heptyn-1-ol,---,252.53,Yaw
CC#CCCCCO,3,5.125206407719208,1978.9219,205.989,76.0,204.0,C7H12O,5-heptyn-1-ol,---,252.53,Yaw
C#CCCCCCO,3,5.125206407719208,1978.9219,205.989,76.0,204.0,C7H12O,6-heptyn-1-ol,---,252.53,Yaw
CCCC#CC(C)O,3,5.125206407719208,1978.9219,205.989,76.0,204.0,C7H12O,3-heptyn-2-ol,---,252.53,Yaw
CCC#CCC(C)O,3,5.125206407719208,1978.9219,205.989,76.0,204.0,C7H12O,4-heptyn-2-ol,---,252.53,Yaw
CC#CCCC(C)O,3,5.125206407719208,1978.9219,205.989,76.0,204.0,C7H12O,5-heptyn-2-ol,---,252.53,Yaw
C#CCCCC(C)O,3,5.125206407719208,1978.9219,205.989,76.0,204.0,C7H12O,6-heptyn-2-ol,---,252.53,Yaw
CCC#CC(O)CC,3,5.125206407719208,1978.9219,205.989,76.0,204.0,C7H12O,4-heptyn-3-ol,---,252.53,Yaw
C#CC(O)CCCC,3,5.125206407719208,1978.9219,205.989,76.0,204.0,C7H12O,1-heptyn-3-ol,7383-19-9,252.53,Yaw
CC#CCC(O)CC,3,5.125206407719208,1978.9219,205.989,76.0,204.0,C7H12O,5-heptyn-3-ol,---,252.53,Yaw
C#CCCC(O)CC,3,5.125206407719208,1978.9219,205.989,76.0,204.0,C7H12O,6-heptyn-3-ol,---,252.53,Yaw
C#CCC(O)CCC,3,5.125206407719208,1978.9219,205.989,76.0,204.0,C7H12O,1-heptyn-4-ol,---,252.53,Yaw
CC#CC(O)CCC,3,5.125206407719208,1978.9219,205.989,76.0,204.0,C7H12O,2-heptyn-4-ol,---,252.53,Yaw
CCC#CC(C)(C)O,3,5.125206407719208,1978.9219,205.989,76.0,204.0,C7H12O,2-methyl-3-hexyn-2-ol,5075-33-2,267.15,Yaw
C#CC(C)(O)CCC,"1,2",5.145086407719209,1824.538,218.117,42.0,159.0,C7H12O,3-methyl-1-hexyn-3-ol,4339-05-3,252.53,Yaw
CCC(C)C#CCO,3,5.125206407719208,1978.9219,205.989,76.0,204.0,C7H12O,4-methyl-2-hexyn-1-ol,---,252.53,Yaw
CC(C)CC#CCO,3,5.125206407719208,1978.9219,205.989,76.0,204.0,C7H12O,5-methyl-2-hexyn-1-ol,---,252.53,Yaw
CCC#CC(C)CO,3,5.125206407719208,1978.9219,205.989,76.0,204.0,C7H12O,2-methyl-3-hexyn-1-ol,---,252.53,Yaw
CC(C)C#CCCO,3,5.125206407719208,1978.9219,205.989,76.0,204.0,C7H12O,5-methyl-3-hexyn-1-ol,---,252.53,Yaw
CC#CCC(C)CO,3,5.125206407719208,1978.9219,205.989,76.0,204.0,C7H12O,2-methyl-4-hexyn-1-ol,---,252.53,Yaw
CC#CC(C)CCO,3,5.125206407719208,1978.9219,205.989,76.0,204.0,C7H12O,3-methyl-4-hexyn-1-ol,---,252.53,Yaw
C#CCCC(C)CO,3,5.125206407719208,1978.9219,205.989,76.0,204.0,C7H12O,2-methyl-5-hexyn-1-ol,---,252.53,Yaw
C#CCC(C)CCO,3,5.125206407719208,1978.9219,205.989,76.0,204.0,C7H12O,3-methyl-5-hexyn-1-ol,---,252.53,Yaw
C#CC(C)CCCO,3,5.125206407719208,1978.9219,205.989,76.0,204.0,C7H12O,4-methyl-5-hexyn-1-ol,---,252.53,Yaw
C#CCCC(C)(C)O,3,5.125206407719208,1978.9219,205.989,76.0,204.0,C7H12O,2-methyl-5-hexyn-2-ol,---,252.53,Yaw
CC#CC(C)(O)CC,3,5.125206407719208,1978.9219,205.989,76.0,204.0,C7H12O,3-methyl-4-hexyn-3-ol,---,252.53,Yaw
C#CCC(C)(O)CC,3,5.125206407719208,1978.9219,205.989,76.0,204.0,C7H12O,3-methyl-5-hexyn-3-ol,---,252.53,Yaw
C#CC(C)C(O)CC,3,5.125206407719208,1978.9219,205.989,76.0,204.0,C7H12O,4-methyl-5-hexyn-3-ol,---,252.53,Yaw
C#CC(O)CC(C)C,3,5.125206407719208,1978.9219,205.989,76.0,204.0,C7H12O,5-methyl-1-hexyn-3-ol,---,252.53,Yaw
CC#CC(O)C(C)C,3,5.125206407719208,1978.9219,205.989,76.0,204.0,C7H12O,2-methyl-4-hexyn-3-ol,---,252.53,Yaw
C#CC(C)(O)C(C)C,3,5.125206407719208,1978.9219,205.989,76.0,204.0,C7H12O,"3,4-dimethyl-1-pentyn-3-ol",1482-15-1,252.53,Yaw
C#CC(O)(CC)CC,"1,2",5.145166407719209,1824.0072,218.159,41.0,158.0,C7H12O,3-ethyl-1-pentyn-3-ol,6285-06-9,240.95,Yaw
CCCC=CCC(=O)O,2,4.408076407719209,1897.1529,193.097,108.57,268.83,C7H12O2,3-heptenoic acid,---,263.9,Yaw
CCCCC=CC(=O)O,2,4.408076407719209,1897.1529,193.097,108.57,268.83,C7H12O2,trans-2-heptenoic acid,10352-88-2,254.15,Yaw
CCC=CCCC(=O)O,2,4.408076407719209,1897.1529,193.097,108.57,268.83,C7H12O2,4-heptenoic acid,---,263.9,Yaw
CC=CCCCC(=O)O,2,4.288096407719209,1849.6886,194.07,105.77,269.85,C7H12O2,5-heptenoic acid,3593-00-8,263.9,Yaw
C=CCCCCC(=O)O,2,4.390616407719208,1890.2494,193.236,108.17,268.97,C7H12O2,6-heptenoic acid,1119-60-4,266.65,Yaw
CCCC=C(C)C(=O)O,2,4.147516407719209,1794.0038,195.266,102.33,271.14,C7H12O2,2-methyl-2-hexenoic acid,---,263.9,Yaw
CCCC(C)=CC(=O)O,2,4.147516407719209,1794.0038,195.266,102.33,271.14,C7H12O2,3-methyl-2-hexenoic acid,---,263.9,Yaw
CCC(C)C=CC(=O)O,2,4.0892064077192085,1770.8875,195.78,100.85,271.7,C7H12O2,4-methyl-2-hexenoic acid,37549-83-0,263.9,Yaw
CC(C)CC=CC(=O)O,2,4.408076407719209,1897.1529,193.097,108.57,268.83,C7H12O2,5-methyl-2-hexenoic acid,41653-96-7,289.65,Yaw
CCC=CC(C)C(=O)O,2,4.147516407719209,1794.0038,195.266,102.33,271.14,C7H12O2,2-methyl-3-hexenoic acid,73513-50-5,263.9,Yaw
CCC=C(C)CC(=O)O,2,4.147516407719209,1794.0038,195.266,102.33,271.14,C7H12O2,3-methyl-3-hexenoic acid,35205-71-1,263.9,Yaw
CCC(C)=CCC(=O)O,2,4.147516407719209,1794.0038,195.266,102.33,271.14,C7H12O2,4-methyl-3-hexenoic acid,55665-79-7,263.9,Yaw
CC(C)C=CCC(=O)O,2,4.147516407719209,1794.0038,195.266,102.33,271.14,C7H12O2,5-methyl-3-hexenoic acid,---,263.9,Yaw
CC=CCC(C)C(=O)O,2,4.147516407719209,1794.0038,195.266,102.33,271.14,C7H12O2,2-methyl-4-hexenoic acid,---,263.9,Yaw
CC=CC(C)CC(=O)O,2,4.147516407719209,1794.0038,195.266,102.33,271.14,C7H12O2,3-methyl-4-hexenoic acid,---,263.9,Yaw
CC=C(C)CCC(=O)O,2,4.147516407719209,1794.0038,195.266,102.33,271.14,C7H12O2,4-methyl-4-hexenoic acid,37549-83-0,263.9,Yaw
CC(C)=CCCC(=O)O,2,4.093886407719209,1772.7436,195.738,100.97,271.65,C7H12O2,5-methyl-4-hexenoic acid,5636-65-7,245.15,Yaw
CCC(C)=C(C)C(=O)O,2,3.855266407719209,1677.9875,197.962,94.57,274.15,C7H12O2,"2,3-dimethyl-2-pentenoic acid",---,263.9,Yaw
CC(=CC(C)C)C(=O)O,2,3.855266407719209,1677.9875,197.962,94.57,274.15,C7H12O2,"2,4-dimethyl-2-pentenoic acid",---,263.9,Yaw
C=CCC(C)(C)C(=O)O,2,3.855266407719209,1677.9875,197.962,94.57,274.15,C7H12O2,"2,2-dimethyl-4-pentenoic acid",16386-93-9,263.9,Yaw
CCC=C(CC)C(=O)O,2,3.855266407719209,1677.9875,197.962,94.57,274.15,C7H12O2,2-ethyl-2-pentenoic acid,---,263.9,Yaw
CCC(=CC(=O)O)CC,2,3.855266407719209,1677.9875,197.962,94.57,274.15,C7H12O2,3-ethyl-2-pentenoic acid,---,263.9,Yaw
C=CC(=O)OCCCC,"1,2",4.821646407719209,1736.4543,215.087,43.99,169.03,C7H12O2,butyl acrylate,141-32-2,208.55,Yaw
C=CC(=O)OC(C)CC,2,4.001066407719208,1469.3885,219.646,30.17,177.48,C7H12O2,sec-butyl acrylate,2998-08-5,210.85,Yaw
C=CC(=O)OCC(C)C,"1,2",4.706056407719209,1653.7277,219.354,31.71,156.06,C7H12O2,isobutyl acrylate,106-63-8,212.0,Yaw
C=C(C)C(=O)OCCC,2,4.417366407719209,1610.1805,216.908,38.75,174.26,C7H12O2,propyl methacrylate,2210-28-8,210.47,Yaw
C=C(C)C(=O)OC(C)C,2,3.828446407719208,1412.3814,221.314,26.07,179.09,C7H12O2,isopropyl methacrylate,4655-34-9,210.47,Yaw
C=CCOC(=O)CCC,2,4.465486407719209,1626.2908,216.588,39.67,173.93,C7H12O2,allyl butanoate,2051-78-7,210.47,Yaw
CCOC(=O)C=C(C)C,2,4.9959264077192085,1803.5038,213.391,48.87,170.75,C7H12O2,ethyl 3-methyl-2-butenoate,638-10-8,210.47,Yaw
CC=C(C)C(=O)OCC,2,5.124596407719208,1846.3901,212.696,50.87,170.09,C7H12O2,ethyl trans-2-methyl-2-butenoate,5837-78-5,210.47,Yaw
CCC=CCC(=O)OC,2,6.205706407719209,2203.9296,207.542,65.0,165.71,C7H12O2,methyl 3-hexenoate,2396-78-3,210.47,Yaw
CCC=C(C)C(=O)OC,2,6.205706407719209,2203.9296,207.542,65.0,165.71,C7H12O2,methyl 2-methyl-2-pentenoate,10478-12-3,210.47,Yaw
CC=C(C)CC(=O)OC,2,6.205706407719209,2203.9296,207.542,65.0,165.71,C7H12O2,methyl 3-methyl-3-pentenoate,2258-58-4,210.47,Yaw
C=CC(=O)OC(C)(C)C,2,6.205706407719209,2203.9296,207.542,65.0,165.71,C7H12O2,tert-butyl acrylate,1663-39-4,210.47,Yaw
CC/C=C(\C)C(=O)OC,2,6.205706407719209,2203.9296,207.542,65.0,165.71,C7H12O2,methyl trans-2-methyl-2-pentenoate,1567-14-2,210.47,Yaw
C=CCCCOC(C)=O,"1,2",4.7111564077192085,1699.5703,215.754,42.07,169.62,C7H12O2,4-pentenyl acetate,1576-85-8,210.47,Yaw
CC(=O)OCC=C(C)C,2,6.205706407719209,2203.9296,207.542,65.0,165.71,C7H12O2,"3,3-dimethylallyl acetate",1191-16-8,210.47,Yaw
CCC=CCCOC=O,2,6.205706407719209,2203.9296,207.542,65.0,165.71,C7H12O2,cis-3-hexenyl formate,33467-73-1,210.47,Yaw
CCCCC(=O)C(C)=O,3,3.6681264077192086,1407.2242,216.032,37.57,201.9,C7H12O2,"2,3-heptanedione",96-04-8,299.4,Yaw
CC(=O)CCCC(C)=O,3,8.184696407719208,2962.4635,194.348,99.97,181.42,C7H12O2,"2,6-heptanedione",13505-34-5,306.65,Yaw
CC(=O)CC(C)C(C)=O,3,5.970956407719209,2204.3559,201.576,79.17,187.2,C7H12O2,"3-methyl-2,5-hexanedione",4437-50-7,299.4,Yaw
CC(=O)C(=O)CC(C)C,3,3.4938564077192087,1346.1948,217.7,32.77,203.93,C7H12O2,"5-methyl-2,3-hexanedione",13706-86-0,299.4,Yaw
CC(=O)C(C)(C)C(C)=O,3,4.731206407719209,1776.9164,207.97,60.77,193.12,C7H12O2,"3,3-dimethyl-2,4-pentanedione",3142-58-3,292.15,Yaw
CCC(C(C)=O)C(C)=O,3,4.987146407719209,1865.4167,206.441,65.17,191.63,C7H12O2,"3-ethyl-2,4-pentanedione",1540-34-7,299.4,Yaw
CCC(=O)CC(=O)CC,3,4.868136407719208,1824.2844,207.136,63.17,192.3,C7H12O2,"3,5-heptanedione",7424-54-6,299.4,Yaw
CCOC(=O)CCC(C)=O,"1,2",4.562346407719208,1843.5635,198.282,87.85,234.35,C7H12O3,ethyl levulinate,539-88-8,264.5942153082313,ML
CCOC(=O)CC(=O)OCC,"1,2",4.944166407719209,2180.7216,242.17,77.35,227.5,C7H12O4,diethyl malonate,105-53-3,224.25,Yaw
CCCCC(C(=O)O)C(=O)O,3,5.8806864077192085,2886.6758,162.073,209.85,355.28,C7H12O4,butylpropanedioic acid,534-59-8,377.65,Yaw
CCC(CC)(C(=O)O)C(=O)O,3,5.694476407719209,2801.6045,163.185,206.65,356.26,C7H12O4,diethylpropanedioic acid,510-20-3,400.15,Yaw
COC(=O)CCCC(=O)OC,"1,2",5.477066407719208,2580.7088,257.185,93.56,241.4,C7H12O4,dimethyl glutarate,1119-40-0,230.65,Yaw
CC(C)(CC(=O)O)CC(=O)O,3,5.694476407719209,2801.6045,163.185,206.65,356.26,C7H12O4,"3,3-dimethylpentanedioic acid",4839-46-7,376.65,Yaw
O=C(O)CCCCCC(=O)O,3,6.077186407719209,2976.3754,160.961,213.05,354.33,C7H12O4,heptanedioic acid,111-16-0,379.15,Yaw
CC(C)CC(C(=O)O)C(=O)O,3,5.694476407719209,2801.6045,163.185,206.65,356.26,C7H12O4,isobutylpropanedioic acid,4361-06-2,385.15,Yaw
CC(CCCC(=O)O)C(=O)O,3,5.694476407719209,2801.6045,163.185,206.65,356.26,C7H12O4,2-methylhexanedioic acid,626-70-0,337.15,Yaw
CC(CCC(=O)O)CC(=O)O,3,5.694476407719209,2801.6045,163.185,206.65,356.26,C7H12O4,"3-methylhexanedioic acid, ()",81177-02-8,370.15,Yaw
CC(C)(CCC(=O)O)C(=O)O,3,5.517776407719209,2720.807,164.297,203.45,357.26,C7H12O4,"2,2-dimethylglutaric acid",681-57-2,357.15,Yaw
CC(CC(C)C(=O)O)C(=O)O,3,5.517776407719209,2720.807,164.297,203.45,357.26,C7H12O4,"2,4-dimethylglutaric acid, DL and meso",2121-67-7,379.15,Yaw
CCCCCC=CBr,2,4.720396407719209,1759.3557,210.75,55.77,187.35,C7H13Br,1-bromo-1-heptene,89942-12-1,175.15,Yaw
CCCCC/C=C\Br,2,4.568566407719208,1702.7663,210.75,53.27,188.25,C7H13Br,cis-1-bromo-1-heptene,39924-57-7,175.15,Yaw
CCCCC/C=C/Br,2,4.568566407719208,1702.7663,210.75,53.27,188.25,C7H13Br,trans-1-bromo-1-heptene,53434-74-5,175.15,Yaw
C=C(Br)CCCCC,2,4.765536407719209,1774.8575,210.472,56.57,187.08,C7H13Br,2-bromo-1-heptene,3252-91-3,175.15,Yaw
C=CC(Br)CCCC,2,4.811376407719209,1790.5911,210.194,57.37,186.8,C7H13Br,3-bromo-1-heptene,---,175.15,Yaw
C=CCC(Br)CCC,2,4.857916407719209,1806.5621,209.916,58.17,186.53,C7H13Br,4-bromo-1-heptene,---,175.15,Yaw
C=CCCC(Br)CC,2,4.905186407719208,1822.7758,209.638,58.97,186.26,C7H13Br,5-bromo-1-heptene,---,175.15,Yaw
C=CCCCC(C)Br,2,4.953196407719209,1839.2381,209.36,59.77,185.99,C7H13Br,6-bromo-1-heptene,---,175.15,Yaw
C=CCCCCCBr,2,5.0019564077192085,1855.9547,209.082,60.57,185.72,C7H13Br,7-bromo-1-heptene,---,175.15,Yaw
CCCCC=CCBr,2,5.051496407719209,1872.9318,208.804,61.37,185.46,C7H13Br,1-bromo-2-heptene,---,175.15,Yaw
CCCCC=C(C)Br,2,5.101826407719209,1890.1756,208.526,62.17,185.19,C7H13Br,2-bromo-2-heptene,---,175.15,Yaw
CC=C(Br)CCCC,2,5.152976407719208,1907.6927,208.248,62.97,184.93,C7H13Br,3-bromo-2-heptene,---,175.15,Yaw
CC=CC(Br)CCC,2,5.204956407719209,1925.4895,207.97,63.77,184.67,C7H13Br,4-bromo-2-heptene,---,175.15,Yaw
CC=CCC(Br)CC,2,5.2577964077192085,1943.5732,207.692,64.57,184.41,C7H13Br,5-bromo-2-heptene,---,175.15,Yaw
CC=CCCC(C)Br,2,5.311506407719209,1961.9507,207.414,65.37,184.16,C7H13Br,6-bromo-2-heptene,---,175.15,Yaw
CC=CCCCCBr,2,5.366106407719208,1980.6296,207.136,66.17,183.9,C7H13Br,7-bromo-2-heptene,---,175.15,Yaw
CCCCCCC(Br)(Br)Br,2,4.617206407719209,2058.1982,182.672,134.07,294.18,C7H13Br3,"1,1,1-tribromoheptane",62127-64-4,286.1280552461823,ML
CCCCCC=CCl,"1,2",5.652306407719209,1961.2042,212.974,47.37,153.52,C7H13Cl,1-chloro-1-heptene,2384-75-0,191.30016272957107,ML
CCCCC/C=C\Cl,2,4.036456407719209,1525.0835,214.364,43.37,193.91,C7H13Cl,cis-1-chloro-1-heptene,53268-66-9,186.11073551654468,ML
CCCCC/C=C/Cl,2,4.036456407719209,1525.0835,214.364,43.37,193.91,C7H13Cl,trans-1-chloro-1-heptene,53268-67-0,185.3705326152699,ML
C=C(Cl)CCCCC,2,3.6770864077192087,1400.5477,217.422,34.57,197.43,C7H13Cl,2-chloro-1-heptene,65786-11-0,183.81045723796584,ML
C=CC(Cl)CCCC,2,3.707716407719209,1411.1834,217.144,35.37,197.1,C7H13Cl,3-chloro-1-heptene,---,200.82758943161684,ML
C=CCC(Cl)CCC,2,3.738726407719208,1421.9484,216.866,36.17,196.77,C7H13Cl,4-chloro-1-heptene,---,193.85759113876114,ML
C=CCCC(Cl)CC,2,3.770136407719209,1432.8454,216.588,36.97,196.44,C7H13Cl,5-chloro-1-heptene,---,188.43901521477437,ML
C=CCCCC(C)Cl,2,3.8019464077192087,1443.8766,216.31,37.77,196.12,C7H13Cl,6-chloro-1-heptene,---,189.7425380852794,ML
C=CCCCCCCl,2,3.8341564077192087,1455.0449,216.032,38.57,195.8,C7H13Cl,7-chloro-1-heptene,---,192.71317560395553,ML
CCCCC=CCCl,2,3.866786407719209,1466.3527,215.754,39.37,195.48,C7H13Cl,1-chloro-2-heptene,---,201.62081443842007,ML
CCCCC=C(C)Cl,2,4.107536407719208,1549.6538,213.808,44.97,193.3,C7H13Cl,2-chloro-2-heptene,---,196.38099284306932,ML
CC=C(Cl)CCCC,2,4.143796407719209,1562.1825,213.53,45.77,193.0,C7H13Cl,3-chloro-2-heptene,---,194.56293449260025,ML
CC=CC(Cl)CCC,2,4.180556407719209,1574.8781,213.252,46.57,192.69,C7H13Cl,4-chloro-2-heptene,---,200.93450208621553,ML
CC=CCC(Cl)CC,2,4.217816407719209,1587.7439,212.974,47.37,192.39,C7H13Cl,5-chloro-2-heptene,---,190.655155096678,ML
CC=CCCC(C)Cl,2,4.255596407719208,1600.7835,212.696,48.17,192.1,C7H13Cl,6-chloro-2-heptene,---,190.96192549951306,ML
CC=CCCCCCl,2,4.293906407719208,1614.0006,212.418,48.97,191.8,C7H13Cl,7-chloro-2-heptene,---,193.1898588130708,ML
CCC=C(Cl)CCC,2,3.6770864077192087,1400.5477,217.422,34.57,197.43,C7H13Cl,4-chloro-3-heptene,2431-24-5,206.7201693492574,ML
CCCCCCC(=O)Cl,3,7.958696407719209,5836.9303,529.818,63.4,232.42,C7H13ClO,heptanoyl chloride,2528-61-2,189.35,Yaw
CC(C)(C)COC(=O)CCl,3,3.581896407719209,1807.6537,273.15,57.76,277.82,C7H13ClO2,neopentyl chloroethanoate,900000-73-9,268.4576247868118,ML
CCCCCCC(Cl)(Cl)Cl,2,4.059276407719208,1692.3347,199.63,85.27,250.67,C7H13Cl3,"1,1,1-trichloroheptane",3922-26-7,269.0777867015784,ML
CCCCCC=CF,2,4.130766407719209,1460.4185,223.844,19.09,157.49,C7H13F,1-fluoro-1-heptene,---,173.83775736774763,ML
CCCCC/C=C\F,2,4.130766407719209,1460.4185,223.844,19.09,157.49,C7H13F,cis-1-fluoro-1-heptene,28028-91-3,166.41147301754165,ML
CCCCC/C=C/F,2,4.130766407719209,1460.4185,223.844,19.09,157.49,C7H13F,trans-1-fluoro-1-heptene,28028-92-4,172.4248266973748,ML
C=C(F)CCCCC,2,4.169806407719209,1473.0596,223.566,19.89,157.19,C7H13F,2-fluoro-1-heptene,---,165.2850073237289,ML
C=CC(F)CCCC,2,4.209406407719209,1485.8812,223.288,20.69,156.89,C7H13F,3-fluoro-1-heptene,---,166.5435744982708,ML
C=CCC(F)CCC,2,4.249606407719209,1498.8873,223.01,21.49,156.59,C7H13F,4-fluoro-1-heptene,---,169.25618302429885,ML
C=CCCC(F)CC,2,4.290396407719209,1512.0821,222.732,22.29,156.3,C7H13F,5-fluoro-1-heptene,---,161.50811656588223,ML
C=CCCCC(C)F,2,4.331796407719208,1525.4698,222.454,23.09,156.0,C7H13F,6-fluoro-1-heptene,---,164.62140797923925,ML
C=CCCCCCF,2,4.373826407719209,1539.0548,222.176,23.89,155.71,C7H13F,7-fluoro-1-heptene,---,175.7627831636944,ML
CCCCC=CCF,2,4.416496407719209,1552.8416,221.898,24.69,155.42,C7H13F,1-fluoro-2-heptene,---,175.5462767748957,ML
CCCCC=C(C)F,2,4.459816407719209,1566.8348,221.62,25.49,155.13,C7H13F,2-fluoro-2-heptene,---,161.9271057170167,ML
CC=C(F)CCCC,2,4.503816407719208,1581.0392,221.342,26.29,154.85,C7H13F,3-fluoro-2-heptene,---,161.37636445138378,ML
CC=CC(F)CCC,2,4.548496407719209,1595.4598,221.064,27.09,154.56,C7H13F,4-fluoro-2-heptene,---,166.44714278014825,ML
CC=CCC(F)CC,2,4.5938764077192085,1610.1017,220.786,27.89,154.28,C7H13F,5-fluoro-2-heptene,---,167.24985525328228,ML
CC=CCCC(C)F,2,4.639986407719209,1624.9701,220.508,28.69,154.0,C7H13F,6-fluoro-2-heptene,---,162.06644279068837,ML
CC=CCCCCF,2,4.686816407719209,1640.0704,220.23,29.49,153.72,C7H13F,7-fluoro-2-heptene,---,171.90356942067118,ML
CCCCCCC(F)(F)F,3,3.4936564077192083,1215.932,224.55,1.69,156.31,C7H13F3,"1,1,1-trifluoroheptane",693-09-4,196.34316873012543,ML
CCCCCC=CI,2,5.917996407719208,2212.1973,202.688,80.97,191.15,C7H13I,1-iodo-1-heptene,---,218.0004342838469,ML
CCCCC/C=C\I,2,5.917996407719208,2212.1973,202.688,80.97,191.15,C7H13I,cis-1-iodo-1-heptene,63318-29-6,205.30445605635353,ML
CCCCC/C=C/I,2,5.917996407719208,2212.1973,202.688,80.97,191.15,C7H13I,trans-1-iodo-1-heptene,60595-37-1,212.39547108247712,ML
C=C(I)CCCCC,2,5.930696407719209,2216.6164,202.633,81.13,191.11,C7H13I,2-iodo-1-heptene,---,203.13528955630795,ML
C=CC(I)CCCC,2,5.943446407719209,2221.051,202.577,81.29,191.06,C7H13I,3-iodo-1-heptene,---,211.42630737343006,ML
C=CCC(I)CCC,2,5.956246407719208,2225.5012,202.522,81.45,191.01,C7H13I,4-iodo-1-heptene,---,200.74977122442056,ML
C=CCCC(I)CC,2,5.9690864077192085,2229.9671,202.466,81.61,190.96,C7H13I,5-iodo-1-heptene,---,197.32329905114477,ML
C=CCCCC(C)I,2,5.981976407719209,2234.4487,202.41,81.77,190.91,C7H13I,6-iodo-1-heptene,---,201.79188821905203,ML
C=CCCCCCI,2,5.994906407719208,2238.9462,202.355,81.93,190.87,C7H13I,7-iodo-1-heptene,---,213.7516883662896,ML
CCCCC=CCI,2,6.007886407719209,2243.4595,202.299,82.09,190.82,C7H13I,1-iodo-2-heptene,---,226.93245699009626,ML
CCCCC=C(C)I,2,6.020906407719208,2247.9889,202.244,82.25,190.77,C7H13I,2-iodo-2-heptene,---,229.0303508123004,ML
CC=C(I)CCCC,2,6.033986407719208,2252.5344,202.188,82.41,190.72,C7H13I,3-iodo-2-heptene,---,216.20585508193176,ML
CC=CC(I)CCC,2,6.047106407719209,2257.096,202.132,82.57,190.67,C7H13I,4-iodo-2-heptene,---,212.05629064004123,ML
CC=CCC(I)CC,2,6.060266407719208,2261.6739,202.077,82.73,190.63,C7H13I,5-iodo-2-heptene,---,199.62157103749416,ML
CC=CCCC(C)I,2,6.073486407719209,2266.2682,202.021,82.89,190.58,C7H13I,6-iodo-2-heptene,---,206.25432456138103,ML
CC=CCCCCI,2,6.086746407719209,2270.8789,201.966,83.05,190.53,C7H13I,7-iodo-2-heptene,---,211.8546688465278,ML