smiles,code,A [log10(atm)],B [C],C [C],TMIN [C],TMAX [C],FORMULA,NAME,CAS No,mp [K],mp_type
CC=CCC(C)(C)C=O,2,3.859546407719209,1521.6913,209.916,55.17,217.7,C8H14O,"2,2-dimethyl-4-hexenal",---,276.65,Yaw
CC=CC(C)C(C)C=O,2,3.859546407719209,1521.6913,209.916,55.17,217.7,C8H14O,"2,3-dimethyl-4-hexenal",---,276.65,Yaw
CC=C(C)CC(C)C=O,2,3.859546407719209,1521.6913,209.916,55.17,217.7,C8H14O,"2,4-dimethyl-4-hexenal",---,276.65,Yaw
CC(C)=CCC(C)C=O,2,3.859546407719209,1521.6913,209.916,55.17,217.7,C8H14O,"2,5-dimethyl-4-hexenal",---,276.65,Yaw
C=CCCC(C)(C)C=O,2,3.859546407719209,1521.6913,209.916,55.17,217.7,C8H14O,"2,2-dimethyl-5-hexenal",---,276.65,Yaw
C=CCC(C)C(C)C=O,2,3.859546407719209,1521.6913,209.916,55.17,217.7,C8H14O,"2,3-dimethyl-5-hexenal",---,276.65,Yaw
C=CC(C)CC(C)C=O,2,3.859546407719209,1521.6913,209.916,55.17,217.7,C8H14O,"2,4-dimethyl-5-hexenal",---,276.65,Yaw
C=C(C)CCC(C)C=O,2,3.859546407719209,1521.6913,209.916,55.17,217.7,C8H14O,"2,5-dimethyl-5-hexenal",---,276.65,Yaw
CCCC=C(C=O)CC,"1,2",4.424606407719208,1701.1036,207.414,62.37,205.12,C8H14O,2-ethyl-2-hexenal,645-62-5,276.65,Yaw
CCCC=CC(=O)CC,2,3.857566407719209,1532.1553,207.831,59.17,222.97,C8H14O,methylheptenone,409-02-9,206.25,Yaw
CCCCC=CC(C)=O,2,3.755646407719208,1495.1498,208.757,56.51,224.04,C8H14O,3-octen-2-one,1669-44-9,206.25,Yaw
CCCCCC=CC(=O)O,2,4.137386407719209,1847.5361,190.262,116.73,291.32,C8H14O2,2-octenoic acid,1470-50-4,278.65,Yaw
CCCCC=CCC(=O)O,2,4.137386407719209,1847.5361,190.262,116.73,291.32,C8H14O2,3-octenoic acid,---,274.85,Yaw
CCCC=CCCC(=O)O,2,4.137386407719209,1847.5361,190.262,116.73,291.32,C8H14O2,4-octenoic acid,---,274.85,Yaw
CCC=CCCCC(=O)O,2,4.137386407719209,1847.5361,190.262,116.73,291.32,C8H14O2,5-octenoic acid,---,274.85,Yaw
CC=CCCCCC(=O)O,2,4.137386407719209,1847.5361,190.262,116.73,291.32,C8H14O2,6-octenoic acid,---,274.85,Yaw
C=CCCCCCC(=O)O,2,4.137386407719209,1847.5361,190.262,116.73,291.32,C8H14O2,7-octenoic acid,---,274.85,Yaw
CCCCC=C(C)C(=O)O,2,3.9021464077192087,1751.1719,192.486,110.33,293.8,C8H14O2,2-methyl-2-heptenoic acid,---,274.85,Yaw
CCCCC(C)=CC(=O)O,2,3.9021464077192087,1751.1719,192.486,110.33,293.8,C8H14O2,3-methyl-2-heptenoic acid,---,274.85,Yaw
CCCC(C)C=CC(=O)O,2,3.9021464077192087,1751.1719,192.486,110.33,293.8,C8H14O2,4-methyl-2-heptenoic acid,---,274.85,Yaw
CCC(C)CC=CC(=O)O,2,3.9021464077192087,1751.1719,192.486,110.33,293.8,C8H14O2,5-methyl-2-heptenoic acid,---,274.85,Yaw
CC(C)CCC=CC(=O)O,2,4.224896407719209,1883.3257,189.483,118.97,290.48,C8H14O2,6-methyl-2-heptenoic acid,90112-75-7,274.65,Yaw
CCCC=CC(C)C(=O)O,2,3.9021464077192087,1751.1719,192.486,110.33,293.8,C8H14O2,2-methyl-3-heptenoic acid,---,274.85,Yaw
CCCC=C(C)CC(=O)O,2,3.9021464077192087,1751.1719,192.486,110.33,293.8,C8H14O2,3-methyl-3-heptenoic acid,---,274.85,Yaw
CCCC(C)=CCC(=O)O,2,3.9021464077192087,1751.1719,192.486,110.33,293.8,C8H14O2,4-methyl-3-heptenoic acid,---,274.85,Yaw
CCC(C)C=CCC(=O)O,2,3.9021464077192087,1751.1719,192.486,110.33,293.8,C8H14O2,5-methyl-3-heptenoic acid,---,274.85,Yaw
CC(C)CC=CCC(=O)O,2,3.9021464077192087,1751.1719,192.486,110.33,293.8,C8H14O2,6-methyl-3-heptenoic acid,---,274.85,Yaw
CCC=CCC(C)C(=O)O,2,3.9021464077192087,1751.1719,192.486,110.33,293.8,C8H14O2,2-methyl-4-heptenoic acid,---,274.85,Yaw
CCC=CC(C)CC(=O)O,2,3.9021464077192087,1751.1719,192.486,110.33,293.8,C8H14O2,3-methyl-4-heptenoic acid,---,274.85,Yaw
CCC=C(C)CCC(=O)O,2,3.9021464077192087,1751.1719,192.486,110.33,293.8,C8H14O2,4-methyl-4-heptenoic acid,---,274.85,Yaw
CCC(C)=CCCC(=O)O,2,3.9021464077192087,1751.1719,192.486,110.33,293.8,C8H14O2,5-methyl-4-heptenoic acid,---,274.85,Yaw
CC(C)C=CCCC(=O)O,2,3.9021464077192087,1751.1719,192.486,110.33,293.8,C8H14O2,6-methyl-4-heptenoic acid,---,274.85,Yaw
CCCC(C)=C(C)C(=O)O,2,3.686676407719209,1662.6744,194.71,103.93,296.39,C8H14O2,"2,3-dimethyl-2-hexenoic acid",---,274.85,Yaw
CCC(C)C=C(C)C(=O)O,2,3.686676407719209,1662.6744,194.71,103.93,296.39,C8H14O2,"2,4-dimethyl-2-hexenoic acid",---,274.85,Yaw
CC(=CCC(C)C)C(=O)O,2,3.686676407719209,1662.6744,194.71,103.93,296.39,C8H14O2,"2,5-dimethyl-2-hexenoic acid",---,274.85,Yaw
CCCC=C(CC)C(=O)O,2,3.792106407719209,1706.0031,193.598,107.13,295.08,C8H14O2,2-ethyl-2-hexenoic acid,5309-52-4,271.25,Yaw
CCCC(=CC(=O)O)CC,2,3.792106407719209,1706.0031,193.598,107.13,295.08,C8H14O2,3-ethyl-2-hexenoic acid,---,274.85,Yaw
CCC(C=CC(=O)O)CC,2,3.792106407719209,1706.0031,193.598,107.13,295.08,C8H14O2,4-ethyl-2-hexenoic acid,---,274.85,Yaw
C=C(C)C(=O)OCCCC,"1,2",4.344356407719209,1624.2467,212.325,48.59,189.39,C8H14O2,butyl methacrylate,97-88-1,197.78,Yaw
C=C(C)C(=O)OCC(C)C,"1,2",4.669006407719209,1718.3083,212.974,49.37,180.41,C8H14O2,isobutyl methacrylate,97-86-9,230.27422296232726,ML
CC(=O)OC1CCCCC1,"1,2",4.270126407719209,1568.2093,194.142,60.81,200.96,C8H14O2,cyclohexyl acetate,622-45-7,298.15,Yaw
CCCCC(=O)CC(C)=O,3,4.688256407719209,1837.3827,202.132,77.57,216.67,C8H14O2,"2,4-octanedione",14090-87-0,238.45,Yaw
CC(=O)CCCCC(C)=O,3,4.2013264077192085,1661.246,205.63,67.51,220.3,C8H14O2,"2,7-octanedione",1626-09-1,317.15,Yaw
CCC(=O)CCC(=O)CC,3,4.2013264077192085,1661.246,205.63,67.51,220.3,C8H14O2,"3,6-octanedione",2955-65-9,308.65,Yaw
CCCC(=O)C(=O)CCC,"1,2",4.4980364077192085,1697.6053,209.36,56.77,195.12,C8H14O2,"4,5-octanedione",5455-24-3,288.08,Yaw
CC(C)C(=O)C(=O)C(C)C,"1,2",4.479916407719209,1614.756,215.893,37.97,170.51,C8H14O2,"2,5-dimethyl-3,4-hexanedione",4388-87-8,288.08,Yaw
C=CCOC(=O)CC(C)C,3,4.812846407719209,2055.4218,190.22,116.85,265.34,C8H14O2,"isovaleric acid, allyl ester",2835-39-4,212.45114806220997,ML
CCOC(=O)C(C)=C(C)C,2,4.132806407719209,1581.848,212.974,50.07,199.85,C8H14O2,"ethyl 2,3-dimethyl-2-butenoate",13979-28-7,207.63,Yaw
CCCC=CC(=O)OCC,2,4.935966407719208,1862.5018,207.553,65.67,194.29,C8H14O2,ethyl 2-hexenoate,1552-67-6,207.63,Yaw
CCC=CCC(=O)OCC,2,4.579026407719208,1738.0035,209.777,59.27,196.49,C8H14O2,ethyl 3-hexenoate,2396-83-0,207.63,Yaw
CC=C(C)CC(=O)OCC,2,5.231536407719208,1963.9674,205.63,70.51,192.7,C8H14O2,ethyl 3-methyl-3-pentenoate,86623-80-5,207.63,Yaw
CCOC(=O)C=CC(C)C,2,4.912376407719209,1854.2838,207.692,65.27,194.42,C8H14O2,ethyl 4-methyl-2-pentenoate,2351-97-5,207.63,Yaw
CCOC(=O)CC=C(C)C,2,5.231536407719208,1963.9674,205.63,70.51,192.7,C8H14O2,ethyl 4-methyl-3-pentenoate,6849-18-9,207.63,Yaw
C=CC(=O)OCC(C)CC,2,4.318096407719208,1646.7672,211.584,54.07,198.36,C8H14O2,2-methylbutyl acrylate,44914-03-6,207.63,Yaw
C=C(C)C(=O)OC(C)(C)C,2,3.418706407719209,1330.3812,219.368,31.67,207.35,C8H14O2,tert-butyl methacrylate,585-07-9,207.63,Yaw
C=C(C)CCC(=O)OCC,2,5.231536407719208,1963.9674,205.63,70.51,192.7,C8H14O2,ethyl 4-methyl-4-pentenoate,4911-54-0,207.63,Yaw
C=CCC(C)C(=O)OCC,2,4.097226407719209,1569.3677,213.252,49.27,200.15,C8H14O2,ethyl 2-methyl-4-pentenoate,53399-81-8,207.63,Yaw
CCCC=CCOC(C)=O,2,4.535226407719208,1722.7023,210.069,58.43,196.79,C8H14O2,trans-2-hexenyl acetate,2497-18-9,207.63,Yaw
C=CC(=O)OCCC(C)C,2,4.242466407719209,1620.2822,212.14,52.47,198.95,C8H14O2,isoamyl acrylate,4245-35-6,207.63,Yaw
CCCC(C(C)=O)C(C)=O,3,3.1451864077192084,1275.9159,215.893,37.97,232.72,C8H14O2,"3-propyl-2,4-pentadione",1540-35-8,298.15,Yaw
CCCC(=O)OC(=O)CCC,"1,2",5.151146407719208,2366.8464,261.23,75.35,226.77,C8H14O3,butyric anhydride,106-31-0,199.85,Yaw
CCOC(=O)CCC(=O)OCC,"1,2",5.001386407719209,2229.6449,228.805,95.17,245.55,C8H14O4,diethyl succinate,123-25-1,252.35,Yaw
COC(=O)CCCCC(=O)OC,"1,2",5.5369564077192095,2824.0929,275.195,105.53,264.17,C8H14O4,dimethyl adipate,627-93-0,283.45,Yaw
CCCOC(=O)C(=O)OCCC,"1,2",5.123406407719209,2228.9579,224.054,94.18,238.16,C8H14O4,dipropyl oxalate,615-98-5,228.85,Yaw
CCC(C)(CC(=O)O)CC(=O)O,3,5.528626407719209,2790.5474,159.571,217.05,374.24,C8H14O4,3-ethyl-3-methylpentanedioic acid,5345-01-7,360.15,Yaw
O=C(O)CCCCCCC(=O)O,3,5.701686407719208,2871.5555,158.459,220.25,373.25,C8H14O4,octanedioic acid,505-48-6,416.15,Yaw
CC(C)(C(=O)O)C(C)(C)C(=O)O,3,5.057716407719209,2569.7291,162.907,207.45,377.33,C8H14O4,tetramethylbutanedioic acid,630-51-3,473.15,Yaw
CCOC(=O)CS(=O)(=O)CC(=O)OCC,3,3.9163164077192087,1657.851,98.374,148.85,360.19,C8H14O6S,"sulfonyldiacetic acid, diethyl ester",29771-87-7,319.5959971746214,ML
CCCCCCC=CBr,2,5.217236407719209,2006.6752,200.798,81.91,207.38,C8H15Br,1-bromo-1-octene,1119-88-6,208.9927561871569,ML
CCCCCC/C=C\Br,2,5.395726407719209,2075.328,200.798,84.41,206.55,C8H15Br,cis-1-bromo-1-octene,42843-49-2,202.1774279722455,ML
CCCCCC/C=C/Br,2,5.217236407719209,2006.6752,200.798,81.91,207.38,C8H15Br,trans-1-bromo-1-octene,51751-87-2,201.26475830986655,ML
C=C(Br)CCCCCC,2,5.449456407719209,2094.4779,200.52,85.21,206.3,C8H15Br,2-bromo-1-octene,13249-60-0,198.83428494473503,ML
C=CC(Br)CCCCC,2,5.504066407719209,2113.9353,200.242,86.01,206.05,C8H15Br,3-bromo-1-octene,---,210.87629004459276,ML
C=CCC(Br)CCCC,2,5.559566407719208,2133.7081,199.964,86.81,205.8,C8H15Br,4-bromo-1-octene,---,205.64865374524524,ML
C=CCCC(Br)CCC,2,5.615996407719209,2153.804,199.686,87.61,205.55,C8H15Br,5-bromo-1-octene,---,205.59046556574188,ML
C=CCCCC(Br)CC,2,5.673376407719209,2174.2311,199.408,88.41,205.3,C8H15Br,6-bromo-1-octene,---,205.550166067689,ML
C=CCCCCC(C)Br,2,5.731726407719208,2194.9979,199.13,89.21,205.05,C8H15Br,7-bromo-1-octene,---,199.14835907875275,ML
C=CCCCCCCBr,2,5.791066407719208,2216.1131,198.852,90.01,204.81,C8H15Br,8-bromo-1-octene,2695-48-9,207.93034971337372,ML
CCCCCC=CCBr,2,5.851426407719208,2237.5855,198.574,90.81,204.57,C8H15Br,1-bromo-2-octene,25466-54-0,221.51428033744514,ML
CCCCCC=C(C)Br,2,5.912836407719208,2259.4247,198.296,91.61,204.32,C8H15Br,2-bromo-2-octene,---,207.62189164150607,ML
CC=C(Br)CCCCC,2,5.975316407719209,2281.6401,198.018,92.41,204.08,C8H15Br,3-bromo-2-octene,---,202.15111496062283,ML
CC=CC(Br)CCCC,2,6.0389064077192085,2304.2417,197.74,93.21,203.84,C8H15Br,4-bromo-2-octene,---,210.4966305415253,ML
CC=CCC(Br)CCC,2,6.103626407719208,2327.2399,197.462,94.01,203.61,C8H15Br,5-bromo-2-octene,---,210.47689912892665,ML
CC=CCCC(Br)CC,2,6.169506407719208,2350.6453,197.184,94.81,203.37,C8H15Br,6-bromo-2-octene,---,201.0396203595691,ML
CC=CCCCC(C)Br,2,6.236586407719209,2374.469,196.906,95.61,203.14,C8H15Br,7-bromo-2-octene,---,206.80072802685643,ML
CC=CCCCCCBr,2,6.304896407719209,2398.7226,196.628,96.41,202.9,C8H15Br,8-bromo-2-octene,---,215.05554352108524,ML
BrCCC1CCCCC1,"1,2",3.4827164077192085,1449.6707,189.247,81.04,266.38,C8H15Br,(2-bromoethyl)cyclohexane,1647-26-3,216.15,Yaw
CCCCCCCC(Br)(Br)Br,2,4.727746407719208,2151.8537,177.946,147.67,308.16,C8H15Br3,"1,1,1-tribromooctane",62127-65-5,291.53543863315736,ML
CCCCCCC=CCl,2,4.089166407719208,1622.8105,206.858,64.97,221.53,C8H15Cl,1-chloro-1-octene,---,209.085294848261,ML
CCCCCC/C=C\Cl,2,4.089166407719208,1622.8105,206.858,64.97,221.53,C8H15Cl,cis-1-chloro-1-octene,64531-23-3,204.76987216079803,ML
CCCCCC/C=C/Cl,2,4.089166407719208,1622.8105,206.858,64.97,221.53,C8H15Cl,trans-1-chloro-1-octene,59871-24-8,200.87980632071626,ML
C=C(Cl)CCCCCC,2,3.8302864077192087,1528.5879,209.082,58.57,224.04,C8H15Cl,2-chloro-1-octene,31283-43-9,200.56982952959765,ML
C=CC(Cl)CCCCC,2,3.8457264077192086,1534.215,208.943,58.97,223.88,C8H15Cl,3-chloro-1-octene,---,218.468835477041,ML
C=CCC(Cl)CCCC,2,3.8612564077192086,1539.8755,208.804,59.37,223.72,C8H15Cl,4-chloro-1-octene,---,215.23814132644324,ML
C=CCCC(Cl)CCC,2,3.876886407719208,1545.5697,208.665,59.77,223.56,C8H15Cl,5-chloro-1-octene,---,213.003346183384,ML
C=CCCCC(Cl)CC,2,3.892606407719208,1551.2979,208.526,60.17,223.4,C8H15Cl,6-chloro-1-octene,---,211.68310095955,ML
C=CCCCCC(C)Cl,2,3.9084364077192086,1557.0605,208.387,60.57,223.24,C8H15Cl,7-chloro-1-octene,---,208.41925518231085,ML
C=CCCCCCCCl,2,3.924356407719209,1562.8578,208.248,60.97,223.08,C8H15Cl,8-chloro-1-octene,---,213.08216157865903,ML
CCCCCC=CCCl,2,3.940376407719208,1568.69,208.109,61.37,222.93,C8H15Cl,1-chloro-2-octene,---,218.51292656799433,ML
CCCCCC=C(C)Cl,2,3.784526407719208,1511.9042,209.499,57.37,224.52,C8H15Cl,2-chloro-2-octene,90202-21-4,212.64362913380424,ML
CC=C(Cl)CCCCC,2,3.799686407719209,1517.4329,209.36,57.77,224.36,C8H15Cl,3-chloro-2-octene,---,210.38093336301006,ML
CC=CC(Cl)CCCC,2,3.3814364077192085,1364.5025,213.53,45.77,229.43,C8H15Cl,4-chloro-2-octene,116668-50-9,215.92135587308007,ML
CC=CCC(Cl)CCC,2,3.394256407719209,1369.2028,213.391,46.17,229.25,C8H15Cl,5-chloro-2-octene,---,213.88450204563773,ML
CC=CCCC(Cl)CC,2,3.407136407719209,1373.9283,213.252,46.57,229.08,C8H15Cl,6-chloro-2-octene,---,209.87797845282014,ML
CC=CCCCC(C)Cl,2,3.4200964077192086,1378.6794,213.113,46.97,228.9,C8H15Cl,7-chloro-2-octene,---,212.6672458433189,ML
CC=CCCCCCCl,2,3.433136407719209,1383.4561,212.974,47.37,228.73,C8H15Cl,8-chloro-2-octene,---,210.4472513821461,ML
CCC(=CCCCl)CC,2,3.956496407719209,1574.5576,207.97,61.77,222.77,C8H15Cl,1-chloro-4-ethyl-3-hexene,82507-04-8,219.07038993133835,ML
CC(C)=CCCC(C)Cl,2,3.956496407719209,1574.5576,207.97,61.77,222.77,C8H15Cl,6-chloro-2-methyl-2-heptene,80325-37-7,209.3272807022677,ML
CCCCCCCC(=O)Cl,3,2.688806407719208,970.7955,132.875,79.57,273.69,C8H15ClO,octanoyl chloride,111-64-8,210.15,Yaw
CCC(C)CCCC(=O)Cl,3,4.157726407719209,2084.3768,273.15,64.85,267.31,C8H15ClO,5-methylheptanoyl chloride,900000-82-0,227.7414893008881,ML
CCCCCCCC(Cl)(Cl)Cl,2,4.118736407719209,1775.0409,193.792,102.07,271.16,C8H15Cl3,"1,1,1-trichlorooctane",4905-79-7,275.0549999882948,ML
CCCCCCC=CF,2,4.005086407719209,1504.8537,217.061,38.61,189.21,C8H15F,1-fluoro-1-octene,---,193.1973091232758,ML
CCCCCC/C=C\F,2,4.0225764077192085,1510.8661,216.922,39.01,189.06,C8H15F,cis-1-fluoro-1-octene,32814-16-7,184.76931140942193,ML
CCCCCC/C=C/F,2,4.040186407719209,1516.9177,216.783,39.41,188.9,C8H15F,trans-1-fluoro-1-octene,32814-17-8,191.81622015945564,ML
C=C(F)CCCCCC,2,4.057906407719209,1523.009,216.644,39.81,188.75,C8H15F,2-fluoro-1-octene,---,183.7470548039274,ML
C=CC(F)CCCCC,2,4.075756407719209,1529.1402,216.505,40.21,188.59,C8H15F,3-fluoro-1-octene,---,183.9294779926372,ML
C=CCC(F)CCCC,2,4.093726407719209,1535.3118,216.366,40.61,188.44,C8H15F,4-fluoro-1-octene,---,188.3106498179628,ML
C=CCCC(F)CCC,2,4.111806407719208,1541.5242,216.227,41.01,188.29,C8H15F,5-fluoro-1-octene,---,183.46906629245902,ML
C=CCCCC(F)CC,2,4.130026407719209,1547.7778,216.088,41.41,188.14,C8H15F,6-fluoro-1-octene,---,186.40126602258738,ML
C=CCCCCC(C)F,2,4.148356407719208,1554.073,215.949,41.81,187.99,C8H15F,7-fluoro-1-octene,---,184.8774011987305,ML
C=CCCCCCCF,2,4.166826407719209,1560.4104,215.81,42.21,187.84,C8H15F,8-fluoro-1-octene,---,195.58236618956917,ML
CCCCCC=CCF,2,4.185416407719209,1566.7902,215.671,42.61,187.69,C8H15F,1-fluoro-2-octene,---,192.61805608721355,ML
CCCCCC=C(C)F,2,4.204126407719208,1573.213,215.532,43.01,187.54,C8H15F,2-fluoro-2-octene,---,179.97041960101964,ML
CC=C(F)CCCCC,2,4.222976407719209,1579.6791,215.393,43.41,187.39,C8H15F,3-fluoro-2-octene,---,179.88397437405692,ML
CC=CC(F)CCCC,2,4.241956407719209,1586.1891,215.254,43.81,187.24,C8H15F,4-fluoro-2-octene,---,182.75709527668872,ML
CC=CCC(F)CCC,2,4.261066407719208,1592.7435,215.115,44.21,187.09,C8H15F,5-fluoro-2-octene,---,183.8563091929407,ML
CC=CCCC(F)CC,2,4.280316407719209,1599.3426,214.976,44.61,186.94,C8H15F,6-fluoro-2-octene,---,182.80137994621347,ML
CC=CCCCC(C)F,2,4.299696407719209,1605.9869,214.837,45.01,186.79,C8H15F,7-fluoro-2-octene,---,184.8551248282013,ML
CC=CCCCCCF,2,4.319216407719209,1612.677,214.698,45.41,186.65,C8H15F,8-fluoro-2-octene,---,192.47239660643945,ML
CCCCCCCC(F)(F)F,3,3.5405064077192083,1303.0333,220.55,19.8,181.69,C8H15F3,"1,1,1-trifluorooctane",53392-86-2,211.31450839056637,ML
CCCCCCC=CI,2,5.960996407719209,2306.2619,197.128,96.97,210.34,C8H15I,1-iodo-1-octene,---,237.39446823289745,ML
CCCCCC/C=C\I,2,5.960996407719209,2306.2619,197.128,96.97,210.34,C8H15I,cis-1-iodo-1-octene,52356-93-1,225.58782957812028,ML
C=C(I)CCCCCC,2,5.973406407719208,2310.7333,197.073,97.13,210.29,C8H15I,2-iodo-1-octene,---,215.51618535926082,ML
C=CC(I)CCCCC,2,5.985866407719209,2315.2199,197.017,97.29,210.25,C8H15I,3-iodo-1-octene,---,230.2521156050573,ML
C=CCC(I)CCCC,2,5.9983664077192085,2319.7219,196.962,97.45,210.2,C8H15I,4-iodo-1-octene,---,217.30372042399767,ML
C=CCCC(I)CCC,2,6.010916407719209,2324.2393,196.906,97.61,210.15,C8H15I,5-iodo-1-octene,---,217.9993835332871,ML
C=CCCCC(I)CC,2,6.023506407719209,2328.7721,196.85,97.77,210.1,C8H15I,6-iodo-1-octene,---,219.83754182999004,ML
C=CCCCCC(C)I,2,6.036136407719209,2333.3205,196.795,97.93,210.05,C8H15I,7-iodo-1-octene,---,219.31172627931048,ML
C=CCCCCCCI,2,6.048816407719208,2337.8846,196.739,98.09,210.01,C8H15I,8-iodo-1-octene,---,232.7273249310721,ML
CCCCCC=CCI,2,6.061536407719208,2342.4643,196.684,98.25,209.96,C8H15I,1-iodo-2-octene,---,243.37657899847014,ML
CCCCCC=C(C)I,2,6.074296407719208,2347.0599,196.628,98.41,209.91,C8H15I,2-iodo-2-octene,---,241.1384393661941,ML
CC=C(I)CCCCC,2,6.087106407719208,2351.6713,196.572,98.57,209.86,C8H15I,3-iodo-2-octene,---,227.98598591937662,ML
CC=CC(I)CCCC,2,6.099966407719208,2356.2987,196.517,98.73,209.82,C8H15I,4-iodo-2-octene,---,229.32433835572456,ML
CC=CCC(I)CCC,2,6.112866407719208,2360.9422,196.461,98.89,209.77,C8H15I,5-iodo-2-octene,---,224.6949229608631,ML
CC=CCCC(I)CC,2,6.125816407719208,2365.6018,196.406,99.05,209.72,C8H15I,6-iodo-2-octene,---,216.35873732377277,ML
CC=CCCCC(C)I,2,6.138806407719208,2370.2777,196.35,99.21,209.67,C8H15I,7-iodo-2-octene,---,225.1101804229293,ML
CC=CCCCCCI,2,6.1518464077192085,2374.9698,196.294,99.37,209.63,C8H15I,8-iodo-2-octene,---,235.75008200372676,ML
CCCCCCCC#N,"1,2",4.572326407719209,1820.0991,199.019,83.03,227.1,C8H15N,octanenitrile,124-12-9,227.55,Yaw
CCCCCCCN=C=O,2,4.776786407719209,1909.7374,201.521,85.33,225.16,C8H15NO,heptyl isocyanate,4747-81-3,276.31797479313803,ML
CCNc1nc(NCC)nc(SC)n1,3,9.033186407719208,5293.0,273.15,211.82,333.0,C8H15N5S,"2-methylthio-4,6-bis(ethylamino)-1,3,5-triazine",1014-70-6,355.15,Yaw
CNN1C=NC(NC(C)C)=NC1SC,3,9.22018640771921,5302.0,273.15,204.46,321.3,C8H15N5S,"2-methylthio-3-methylamino-6-isopropylamino-1,3,5-triazine",900000-27-3,383.8808107943316,ML
CCCC1CCCC1,"1,2",4.131526407719209,1485.3212,228.559,18.49,159.2,C8H16,propylcyclopentane,2040-96-2,155.81,Yaw
CC(C)C1CCCC1,"1,2",4.151856407719209,1453.9021,223.761,17.24,153.79,C8H16,isopropylcyclopentane,3875-51-2,161.79,Yaw
CCC1(C)CCCC1,"1,2",4.331036407719209,1572.9075,241.621,11.59,148.68,C8H16,1-methyl-1-ethylcyclopentane,16747-50-5,160.31,Yaw
CCC1CCCC1C,"1,2",4.049156407719209,1398.3718,217.399,18.42,155.69,C8H16,1-methyl-cis-2-ethylcyclopentane,930-89-2,167.2,Yaw
CC[C@@H]1CC[C@H](C)C1,"1,2",4.039796407719209,1376.6835,219.331,13.19,148.89,C8H16,1-methyl-cis-3-ethylcyclopentane,2613-66-3,160.31,Yaw
CC[C@H]1CC[C@H](C)C1,"1,2",4.092606407719209,1408.5298,223.315,12.48,148.17,C8H16,1-methyl-trans-3-ethylcyclopentane,2613-65-2,165.15,Yaw
CC1CCCC1(C)C,"1,2",4.016086407719208,1351.9098,222.874,-21.64,141.03,C8H16,"1,1,2-trimethylcyclopentane",4259-00-1,251.51,Yaw
CC1CCC(C)(C)C1,"1,2",4.003226407719208,1311.0301,222.544,0.27,131.58,C8H16,"1,1,3-trimethylcyclopentane",4516-69-2,130.71,Yaw
CC1CC(C)C(C)C1,"1,2",3.986486407719209,1336.779,218.578,9.26,144.14,C8H16,"1,cis-2,cis-4-trimethylcyclopentane",2613-72-1,140.85,Yaw
CCC1CCC(C)C1,"1,2",3.869486407719209,1329.0232,222.412,8.71,150.02,C8H16,1-methyl-3-ethylcyclopentane,3726-47-4,142.85,Yaw
CCC1CCCCC1,"1,2",4.084096407719208,1473.0471,228.828,18.12,160.55,C8H16,ethylcyclohexane,1678-91-7,161.84,Yaw
CC1(C)CCCCC1,"1,2",3.972966407719209,1360.6854,222.636,9.81,147.93,C8H16,"1,1-dimethylcyclohexane",590-66-9,239.66,Yaw
CC1CCCCC1C,"1,2",4.202356407719209,1457.8565,221.064,18.59,152.62,C8H16,"1,2-dimethylcyclohexane",583-57-3,201.53,Yaw
C[C@H]1CCCC[C@H]1C,"1,2",3.9813964077192088,1395.1241,220.561,17.43,158.51,C8H16,"cis-1,2-dimethylcyclohexane",2207-01-4,176.73860727906097,ML
CC1CCCC(C)C1,"1,2",4.196406407719208,1437.5556,222.718,13.83,146.32,C8H16,"1,3-dimethylcyclohexane",591-21-9,201.53,Yaw