smiles,code,A [log10(atm)],B [C],C [C],TMIN [C],TMAX [C],FORMULA,NAME,CAS No,mp [K],mp_type
CCCCCCC(I)(I)I,2,15.38332640771921,6693.5048,155.262,232.45,288.54,C7H13I3,"1,1,1-triiodoheptane",---,303.6555321828162,ML
CCCCCCC#N,"1,2",4.499546407719208,1730.6287,204.773,66.47,207.43,C7H13N,heptanenitrile,629-08-3,210.55,Yaw
CCCCCCN=C=O,2,4.324706407719209,1672.5144,210.75,58.77,204.92,C7H13NO,hexyl isocyanate,2525-62-4,276.1943529371697,ML
CCC1CCCC1,"1,2",4.211166407719209,1429.6095,236.03,-1.36,129.59,C7H14,ethylcyclopentane,1640-89-7,134.71,Yaw
CC1(C)CCCC1,"1,2",4.168526407719209,1332.5354,231.916,-11.64,112.63,C7H14,"1,1-dimethylcyclopentane",1638-26-2,203.36,Yaw
CC1CCCC1C,"1,2",3.8226864077192086,1246.1581,229.14,-10.65,124.72,C7H14,"1,2-dimethylcyclopentane",2452-99-5,154.1,Yaw
CC1CCC(C)C1,"1,2",3.840456407719208,1235.4063,230.502,-14.57,118.54,C7H14,"1,3-dimethylcyclopentane",2453-00-1,134.6,Yaw
CC1CCCCC1,"1,2",4.121246407719209,1375.133,232.819,-3.71,127.14,C7H14,methylcyclohexane,108-87-2,147.6,Yaw
C1CCCCCC1,"1,2",4.130486407719209,1417.9337,224.495,-8.03,145.78,C7H14,cycloheptane,291-64-5,265.12,Yaw
C=CCCCCC,"1,2",4.209086407719209,1371.2201,232.136,-6.97,118.73,C7H14,1-heptene,592-76-7,154.27,Yaw
CC=CCCCC,"1,2",4.474086407719208,1463.0309,228.751,1.47,121.84,C7H14,2-heptene,592-77-8,148.75,Yaw
CCC=CCCC,"1,2",4.4719264077192085,1454.5733,229.418,-0.45,119.33,C7H14,3-heptene,592-78-9,148.75,Yaw
CC/C=C\CCC,"1,2",4.146056407719208,1361.0109,232.516,-6.69,121.45,C7H14,cis-3-heptene,7642-10-6,136.51,Yaw
C=C(C)CCCC,"1,2",4.179256407719208,1357.854,233.064,-9.0,117.06,C7H14,2-methyl-1-hexene,6094-02-6,170.28,Yaw
C=CC(C)CCC,"1,2",4.172066407719209,1319.1401,232.284,-14.35,108.49,C7H14,3-methyl-1-hexene,3404-61-3,145.0,Yaw
C=CCC(C)CC,"1,2",4.263536407719209,1400.3334,241.714,-13.81,111.68,C7H14,4-methyl-1-hexene,3769-23-1,131.7,Yaw
C=CCCC(C)C,"1,2",4.097706407719208,1268.4916,224.251,-12.08,109.85,C7H14,5-methyl-1-hexene,3524-73-0,148.75,Yaw
CCCC=C(C)C,"1,2",4.179756407719209,1376.0407,233.806,-6.76,120.96,C7H14,2-methyl-2-hexene,2738-19-4,142.8,Yaw
C/C=C(/C)CCC,"1,2",4.115116407719209,1329.1054,225.721,-4.05,122.75,C7H14,3-methyl-cis-2-hexene,10574-36-4,154.65,Yaw
CC=C(C)CCC,"1,2",4.071216407719208,1285.8612,220.662,-4.62,120.4,C7H14,3-methyl-trans-2-hexene,20710-38-7,143.85,Yaw
C/C=C\C(C)CC,"1,2",4.073706407719208,1260.5451,223.124,-11.43,111.0,C7H14,4-methyl-cis-2-hexene,3683-19-0,148.75,Yaw
C/C=C/C(C)CC,"1,2",4.060106407719209,1254.1723,221.34,-10.23,112.3,C7H14,4-methyl-trans-2-hexene,3683-22-5,147.46,Yaw
C/C=C\CC(C)C,"1,2",4.085636407719209,1281.2988,224.11,-9.36,114.44,C7H14,5-methyl-cis-2-hexene,13151-17-2,148.75,Yaw
CC=CCC(C)C,"1,2",4.066256407719209,1260.9697,221.996,-9.96,112.9,C7H14,5-methyl-trans-2-hexene,7385-82-2,148.81,Yaw
CC/C=C\C(C)C,"1,2",4.0705564077192085,1258.173,223.041,-11.63,110.73,C7H14,2-methyl-cis-3-hexene,15840-60-5,148.75,Yaw
CCC=CC(C)C,"1,2",4.072156407719208,1257.8779,222.997,-11.69,110.56,C7H14,2-methyl-trans-3-hexene,692-24-0,131.59,Yaw
CC/C=C(/C)CC,"1,2",4.043306407719209,1264.0676,217.231,-3.85,120.55,C7H14,3-methyl-cis-3-hexene,4914-89-0,148.75,Yaw
CC/C=C(\C)CC,"1,2",4.159136407719209,1351.9543,231.515,-7.68,118.9,C7H14,3-methyl-trans-3-hexene,3899-36-3,148.75,Yaw
C=C(CC)CCC,"1,2",4.133706407719209,1325.4282,226.639,-6.27,119.18,C7H14,2-ethyl-1-pentene,3404-71-5,168.0,Yaw
C=CC(CC)CC,"1,2",4.208536407719208,1346.2604,235.778,-14.69,108.75,C7H14,3-ethyl-1-pentene,4038-04-4,145.67,Yaw
C=C(C)C(C)CC,"1,2",4.021986407719209,1227.8786,221.012,-13.0,108.98,C7H14,"2,3-dimethyl-1-pentene",3404-72-6,138.85,Yaw
C=C(C)CC(C)C,"1,2",4.055926407719209,1245.3212,225.427,-15.66,106.23,C7H14,"2,4-dimethyl-1-pentene",2213-32-3,149.09,Yaw
C=CC(C)(C)CC,"1,2",3.8975964077192087,1140.2334,215.068,-17.74,101.97,C7H14,"3,3-dimethyl-1-pentene",3404-73-7,138.77,Yaw
C=CC(C)C(C)C,"1,2",3.984726407719209,1190.5796,217.986,-15.01,105.22,C7H14,"3,4-dimethyl-1-pentene",7385-78-6,148.75,Yaw
C=CCC(C)(C)C,"1,2",3.988376407719208,1193.2947,226.675,-23.36,96.94,C7H14,"4,4-dimethyl-1-pentene",762-62-9,136.55,Yaw
CC=C(CC)CC,"1,2",4.123456407719209,1331.4345,226.883,-5.14,121.44,C7H14,3-ethyl-2-pentene,816-79-5,148.75,Yaw
CCC(C)=C(C)C,"1,2",4.133606407719209,1305.5988,221.0,-3.92,119.66,C7H14,"2,3-dimethyl-2-pentene",10574-37-5,154.88,Yaw
CC(C)=CC(C)C,"1,2",3.969286407719209,1190.6244,216.66,-13.14,107.92,C7H14,"2,4-dimethyl-2-pentene",625-65-0,145.45,Yaw
C/C=C(/C)C(C)C,"1,2",4.0093464077192085,1244.7098,221.102,-9.78,114.55,C7H14,"3,4-dimethyl-cis-2-pentene",4914-91-4,159.76,Yaw
C/C=C(\C)C(C)C,"1,2",4.019096407719209,1256.7001,221.232,-8.23,116.77,C7H14,"3,4-dimethyl-trans-2-pentene",4914-92-5,148.92,Yaw
CC=CC(C)(C)C,"1,2",4.008696407719208,1224.7655,225.677,-17.72,104.66,C7H14,"4,4-dimethyl-cis-2-pentene",762-63-0,137.69,Yaw
C=C(CC)C(C)C,"1,2",3.967856407719209,1227.137,221.419,-11.6,113.24,C7H14,3-methyl-2-ethyl-1-butene,7357-93-9,148.75,Yaw
C=C(C)C(C)(C)C,"1,2",4.074546407719208,1269.2945,233.668,-20.53,102.7,C7H14,"2,3,3-trimethyl-1-butene",594-56-9,163.3,Yaw
CC=C(C)C(C)C,"1,2",4.5289364077192085,1440.1924,231.698,-7.01,108.94,C7H14,"3,4-dimethylpent-2-ene",24910-63-2,149.05,Yaw
CC1(C)CC1(C)C,"1,2",5.511426407719208,1690.5932,230.893,-2.19,93.57,C7H14,"1,1,2,2-tetramethylcyclopropane",4127-47-3,167.25,Yaw
CCC1(CC)CC1,"1,2",4.636056407719209,1483.9549,231.42,-3.71,110.9,C7H14,"1,1-diethylcyclopropane",1003-19-6,167.25,Yaw
CCCCCCC(Br)Br,2,4.662806407719208,1952.3696,193.792,104.57,253.82,C7H14Br2,"1,1-dibromoheptane",59104-79-9,266.9123349453011,ML
CCCCCC(Br)CBr,2,4.823696407719209,2014.3722,192.68,107.77,252.71,C7H14Br2,"1,2-dibromoheptane",42474-21-5,271.7189697571443,ML
CCCC(Br)CCCBr,2,4.907486407719208,2046.633,192.124,109.37,252.17,C7H14Br2,"1,4-dibromoheptane",---,272.68453490757554,ML
CCC(Br)CCCCBr,2,4.950256407719209,2063.0936,191.846,110.17,251.9,C7H14Br2,"1,5-dibromoheptane",1622-10-2,269.23542925720966,ML
CC(Br)CCCCCBr,2,4.9936264077192085,2079.7805,191.568,110.97,251.64,C7H14Br2,"1,6-dibromoheptane",---,268.9756216541451,ML
BrCCCCCCCBr,"1,2",3.978226407719209,1775.6417,191.29,111.77,291.59,C7H14Br2,"1,7-dibromoheptane",4549-31-9,314.85,Yaw
CCCCCC(C)(Br)Br,2,4.295676407719209,1810.5916,196.572,96.57,256.68,C7H14Br2,"2,2-dibromoheptane",---,262.6151739866976,ML
CCCCC(Br)C(C)Br,2,4.330316407719208,1823.9883,196.294,97.37,256.39,C7H14Br2,"2,3-dibromoheptane",21266-88-6,264.41085267096685,ML
CCCC(Br)CC(C)Br,2,4.365396407719208,1837.5499,196.016,98.17,256.1,C7H14Br2,"2,4-dibromoheptane",116557-26-7,267.90406168430474,ML
CCC(Br)CCC(C)Br,2,4.400916407719208,1851.2794,195.738,98.97,255.81,C7H14Br2,"2,5-dibromoheptane",---,265.54418661030746,ML
CC(Br)CCCC(C)Br,2,4.436896407719209,1865.18,195.46,99.77,255.52,C7H14Br2,"2,6-dibromoheptane",---,263.76281874527984,ML
CCCC(Br)C(Br)CC,2,4.473336407719208,1879.2551,195.182,100.57,255.23,C7H14Br2,"3,4-dibromoheptane",21266-90-0,268.76512826411806,ML
FCCCCCCCCl,2,4.914196407719209,1910.3229,202.966,78.17,211.14,C7H14ClF,1-chloro-7-fluoroheptane,334-43-0,234.1468123998403,ML
CCCCCCC(Cl)Cl,"1,2",4.650436407719209,1855.1899,204.078,79.97,222.46,C7H14Cl2,"1,1-dichloroheptane",821-25-0,296.65,Yaw
CCCCCC(Cl)CCl,2,4.268316407719209,1719.1138,203.8,75.77,229.52,C7H14Cl2,"1,2-dichloroheptane",10575-87-8,296.65,Yaw
CCCCC(Cl)CCCl,2,4.304236407719209,1732.3849,203.522,76.57,229.23,C7H14Cl2,"1,3-dichloroheptane",---,296.65,Yaw
CCCC(Cl)CCCCl,2,4.340626407719209,1745.8261,203.244,77.37,228.93,C7H14Cl2,"1,4-dichloroheptane",---,296.65,Yaw
CCC(Cl)CCCCCl,2,4.377506407719209,1759.4408,202.966,78.17,228.64,C7H14Cl2,"1,5-dichloroheptane",---,296.65,Yaw
CC(Cl)CCCCCCl,2,4.414876407719208,1773.2326,202.688,78.97,228.35,C7H14Cl2,"1,6-dichloroheptane",---,296.65,Yaw
ClCCCCCCCCl,2,4.452746407719209,1787.2049,202.41,79.77,228.06,C7H14Cl2,"1,7-dichloroheptane",821-76-1,296.65,Yaw
CCCCCC(C)(Cl)Cl,2,3.901926407719209,1583.4765,206.858,66.97,232.89,C7H14Cl2,"2,2-dichloroheptane",65786-09-6,296.65,Yaw
CCCCC(Cl)C(C)Cl,2,3.933196407719208,1595.0761,206.58,67.77,232.57,C7H14Cl2,"2,3-dichloroheptane",---,296.65,Yaw
CCCC(Cl)CC(C)Cl,2,3.9648564077192088,1606.8138,206.302,68.57,232.26,C7H14Cl2,"2,4-dichloroheptane",---,296.65,Yaw
CCC(Cl)CCC(C)Cl,2,3.996916407719208,1618.6922,206.024,69.37,231.95,C7H14Cl2,"2,5-dichloroheptane",---,296.65,Yaw
CC(Cl)CCCC(C)Cl,2,4.029366407719209,1630.7139,205.746,70.17,231.64,C7H14Cl2,"2,6-dichloroheptane",---,296.65,Yaw
CCCC(Cl)(Cl)CCC,2,4.3038264077192085,1740.5933,205.468,75.97,229.38,C7H14Cl2,"4,4-dichloroheptane",89796-76-9,296.65,Yaw
CC(C)(C)CC(Cl)CCl,"1,2",5.048906407719208,1924.9665,207.414,70.37,198.02,C7H14Cl2,"1,2-dichloro-4,4-dimethylpentane",6065-90-3,296.65,Yaw
CC(C)(CCCl)CCCl,2,3.840486407719209,1560.682,207.414,65.37,233.52,C7H14Cl2,"1,5-dichloro-3,3-dimethylpentane",62496-53-1,296.65,Yaw
CC(C)(Cl)CC(C)(C)Cl,2,3.840486407719209,1560.682,207.414,65.37,233.52,C7H14Cl2,"2,4-dichloro-2,4-dimethylpentane",33553-93-4,296.65,Yaw
CCCCCCC(F)F,3,3.926526407719209,1445.5492,222.788,26.13,175.93,C7H14F2,"1,1-difluoroheptane",407-96-5,191.15,Yaw
CCCCCC(F)CF,3,3.961336407719209,1457.2644,222.51,26.93,175.62,C7H14F2,"1,2-difluoroheptane",---,191.15,Yaw
CCCCC(F)CCF,3,3.9966264077192086,1469.1344,222.232,27.73,175.3,C7H14F2,"1,3-difluoroheptane",---,191.15,Yaw
CCCC(F)CCCF,3,4.032396407719209,1481.1622,221.954,28.53,175.0,C7H14F2,"1,4-difluoroheptane",---,191.15,Yaw
CCC(F)CCCCF,3,4.068656407719208,1493.3512,221.676,29.33,174.69,C7H14F2,"1,5-difluoroheptane",---,191.15,Yaw
CC(F)CCCCCF,3,4.105426407719208,1505.7047,221.398,30.13,174.38,C7H14F2,"1,6-difluoroheptane",---,191.15,Yaw
FCCCCCCCF,3,4.142706407719209,1518.2261,221.12,30.93,174.08,C7H14F2,"1,7-difluoroheptane",---,191.15,Yaw
CCCCCC(C)(F)F,3,3.6024664077192083,1336.2638,225.568,18.13,179.18,C7H14F2,"2,2-difluoroheptane",---,191.15,Yaw
CCCCC(F)C(C)F,3,3.6330264077192087,1346.5894,225.29,18.93,178.85,C7H14F2,"2,3-difluoroheptane",---,191.15,Yaw
CCCC(F)CC(C)F,3,3.663976407719209,1357.0422,225.012,19.73,178.52,C7H14F2,"2,4-difluoroheptane",---,191.15,Yaw
CCC(F)CCC(C)F,3,3.695326407719208,1367.6245,224.734,20.53,178.18,C7H14F2,"2,5-difluoroheptane",---,191.15,Yaw
CC(F)CCCC(C)F,3,3.727076407719209,1378.339,224.456,21.33,177.86,C7H14F2,"2,6-difluoroheptane",---,191.15,Yaw
CCCC(F)(F)CCC,3,3.759236407719208,1389.1882,224.178,22.13,177.53,C7H14F2,"4,4-difluoroheptane",---,191.15,Yaw
CC(C)(C)CC(F)CF,3,3.791816407719209,1400.1747,223.9,22.93,177.21,C7H14F2,"1,2-difluoro-4,4-dimethylpentane",---,191.15,Yaw
CC(C)(CCF)CCF,3,3.8582764077192087,1422.5706,223.344,24.53,176.56,C7H14F2,"1,5-difluoro-3,3-dimethylpentane",---,191.15,Yaw
CC(C)(F)CC(C)(C)F,3,3.8921764077192087,1433.9856,223.066,25.33,176.25,C7H14F2,"2,4-difluoro-2,4-dimethylpentane",---,191.15,Yaw
CCCCCCC(I)I,2,4.2735164077192085,2039.1844,178.892,152.45,334.44,C7H14I2,"1,1-diiodoheptane",66675-46-5,284.151058748819,ML
CCCCCC(I)CI,2,4.334536407719209,2065.8928,178.336,154.05,333.85,C7H14I2,"1,2-diiodoheptane",---,289.9260563574098,ML
CCCCC(I)CCI,2,4.396926407719208,2093.1852,177.78,155.65,333.26,C7H14I2,"1,3-diiodoheptane",---,285.5428820442434,ML
CCCC(I)CCCI,2,4.460736407719208,2121.0813,177.224,157.25,332.69,C7H14I2,"1,4-diiodoheptane",---,285.78871453859864,ML
CCC(I)CCCCI,2,4.526016407719209,2149.6021,176.668,158.85,332.12,C7H14I2,"1,5-diiodoheptane",---,285.47633923578405,ML
CC(I)CCCCCI,2,4.5927964077192085,2178.7691,176.112,160.45,331.55,C7H14I2,"1,6-diiodoheptane",---,286.3202913569274,ML
ICCCCCCCI,2,4.661156407719209,2208.6053,175.556,162.05,330.99,C7H14I2,"1,7-diiodoheptane",---,294.8402437801248,ML
CCCCCC(C)(I)I,2,3.987436407719208,1913.7635,181.672,144.45,337.47,C7H14I2,"2,2-diiodoheptane",---,278.0742399894352,ML
CCCCC(I)C(C)I,2,4.042246407719209,1937.8217,181.116,146.05,336.85,C7H14I2,"2,3-diiodoheptane",---,282.5000753465454,ML
CCCC(I)CC(C)I,2,4.098226407719209,1962.3766,180.56,147.65,336.24,C7H14I2,"2,4-diiodoheptane",---,282.3028683975474,ML
CCC(I)CCC(C)I,2,4.155396407719208,1987.4441,180.004,149.25,335.63,C7H14I2,"2,5-diiodoheptane",---,283.6590212336508,ML
CC(I)CCCC(C)I,2,4.213816407719209,2013.0409,179.448,150.85,335.03,C7H14I2,"2,6-diiodoheptane",---,284.2771875122209,ML
CCCC(I)(I)CCC,2,4.2735164077192085,2039.1844,178.892,152.45,334.44,C7H14I2,"4,4-diiodoheptane",---,273.72178324769084,ML
CC(C)(C)CC(I)CI,2,4.042246407719209,1937.8217,181.116,146.05,336.85,C7H14I2,"1,2-diiodo-4,4-dimethylpentane",---,295.17120573855266,ML
CC(C)(CCI)CCI,2,4.098226407719209,1962.3766,180.56,147.65,336.24,C7H14I2,"1,5-diiodo-3,3-dimethylpentane",---,286.52342633502815,ML
CC(C)(I)CC(C)(C)I,2,4.155396407719208,1987.4441,180.004,149.25,335.63,C7H14I2,"2,4-diiodo-2,4-dimethylpentane",---,290.2858265833166,ML
CCCCCCC=O,"1,2",4.780826407719209,1756.6469,213.586,50.11,178.54,C7H14O,1-heptanal,111-71-7,229.8,Yaw
CCCCC(C)C=O,2,4.677166407719208,1686.3223,216.811,40.33,168.53,C7H14O,2-methylhexanal,925-54-2,229.8,Yaw
CCCC(C)CC=O,2,4.709026407719208,1697.811,216.811,40.83,168.36,C7H14O,3-methylhexanal,19269-28-4,229.8,Yaw
CCC(C)CCC=O,2,4.677166407719208,1686.3223,216.811,40.33,168.53,C7H14O,4-methylhexanal,41065-97-8,229.8,Yaw
CC(C)CCCC=O,2,4.677166407719208,1686.3223,216.811,40.33,168.53,C7H14O,5-methylhexanal,1860-39-5,229.8,Yaw
CCCC(C)(C)C=O,2,4.465746407719209,1616.0569,218.145,36.49,169.89,C7H14O,"2,2-dimethylpentanal",14250-88-5,229.8,Yaw
CCC(C)C(C)C=O,2,4.386186407719209,1589.5823,218.673,34.97,170.44,C7H14O,"2,3-dimethylpentanal",32749-94-3,229.8,Yaw
CC(C)CC(C)C=O,2,4.386186407719209,1589.5823,218.673,34.97,170.44,C7H14O,"2,4-dimethylpentanal",27944-79-2,229.8,Yaw
CCCCCC(C)=O,"1,2",4.524436407719208,1651.095,214.078,43.69,176.86,C7H14O,2-heptanone,110-43-0,238.15,Yaw
CCCCC(=O)CC,"1,2",4.537596407719208,1642.3233,215.087,40.79,172.57,C7H14O,3-heptanone,106-35-4,234.15,Yaw
CCCC(=O)CCC,"1,2",4.518046407719209,1625.9653,216.032,38.07,169.54,C7H14O,4-heptanone,123-19-3,240.65,Yaw
CCCC(C)C(C)=O,"1,2",4.558486407719209,1622.7969,217.144,34.87,164.02,C7H14O,3-methyl-2-hexanone,2550-21-2,226.95,Yaw
CCC(C)CC(C)=O,"1,2",4.471636407719209,1597.5933,217.422,34.07,165.64,C7H14O,4-methyl-2-hexanone,105-42-0,226.95,Yaw
CC(=O)CCC(C)C,"1,2",4.641306407719209,1660.0097,215.81,38.71,166.66,C7H14O,5-methyl-2-hexanone,110-12-3,199.25,Yaw
CCCC(=O)C(C)C,"1,2",4.466626407719208,1576.4512,219.09,29.27,159.36,C7H14O,2-methyl-3-hexanone,7379-12-6,226.95,Yaw
CCC(=O)C(C)CC,2,4.390536407719209,1567.3745,218.256,31.67,165.01,C7H14O,4-methyl-3-hexanone,17042-16-9,226.95,Yaw
CCC(=O)CC(C)C,"1,2",4.469146407719209,1587.0219,218.256,31.67,162.5,C7H14O,5-methyl-3-hexanone,623-56-3,226.95,Yaw
CCC(C)(C)C(C)=O,"1,2",4.490466407719208,1574.3908,219.758,27.35,156.04,C7H14O,"3,3-dimethyl-2-pentanone",20669-04-9,226.95,Yaw
CC(=O)C(C)C(C)C,"1,2",4.381816407719208,1552.1196,219.368,28.47,160.98,C7H14O,"3,4-dimethyl-2-pentanone",565-78-6,226.95,Yaw
CC(=O)CC(C)(C)C,"1,2",4.503486407719208,1558.9449,221.314,22.87,149.65,C7H14O,"4,4-dimethyl-2-pentanone",590-50-1,209.15,Yaw
CCC(=O)C(C)(C)C,"1,2",4.503486407719208,1558.9449,221.314,22.87,149.65,C7H14O,"2,2-dimethyl-3-pentanone",564-04-5,228.15,Yaw
CC(C)C(=O)C(C)C,"1,2",4.476636407719209,1550.3981,221.481,22.39,149.82,C7H14O,"2,4-dimethyl-3-pentanone",565-80-0,239.15,Yaw
CCC(CC)C(C)=O,"1,2",4.513566407719209,1604.7985,217.7,33.27,163.26,C7H14O,3-ethyl-2-pentanone,6137-03-7,226.95,Yaw
CCC1(O)CCCC1,2,4.797956407719209,1808.7589,213.252,57.57,188.97,C7H14O,1-ethylcyclopentanol,1462-96-0,272.4,Yaw
CCC1CCCC1O,2,4.797956407719209,1808.7589,213.252,57.57,188.97,C7H14O,2-ethylcyclopentanol,58577-70-1,272.4,Yaw
CCC1CCC(O)C1,2,4.797956407719209,1808.7589,213.252,57.57,188.97,C7H14O,3-ethylcyclopentanol,---,272.4,Yaw
CC1(O)CCCCC1,2,5.183976407719209,1934.83,209.499,64.37,186.74,C7H14O,methylcyclohexanol,25639-42-3,223.25,Yaw
CC1CCCCC1O,"1,2",5.379116407719209,2005.3257,208.248,67.97,186.65,C7H14O,2-methylcyclohexanol,583-59-5,235.15,Yaw
CC1CCCC(O)C1,"1,2",5.199036407719209,1937.4747,209.611,64.05,185.95,C7H14O,3-methylcyclohexanol; (cis+trans),591-23-1,199.25,Yaw
C[C@@H]1CCC[C@H](O)C1,2,5.481036407719209,2037.3202,207.97,68.77,185.33,C7H14O,cis-3-methylcyclohexanol,5454-79-5,267.65,Yaw
C[C@H]1CCC[C@H](O)C1,2,5.538026407719208,2056.965,207.692,69.57,185.08,C7H14O,trans-3-methylcyclohexanol,7443-55-2,272.65,Yaw
CC1CCC(O)CC1,"1,2",4.991496407719208,1898.2583,208.248,67.97,196.46,C7H14O,4-methylcyclohexanol; (cis+trans),589-91-3,223.25,Yaw
CCCCC=CCO,2,4.940566407719209,1902.2945,206.302,72.57,203.72,C7H14O,2-hepten-1-ol,---,237.15,Yaw
CCCC/C=C\CO,2,4.914966407719208,1892.4357,206.302,57.0,203.85,C7H14O,cis-2-hepten-1-ol,55454-22-3,330.15,Yaw
CCCC=CCCO,2,4.940566407719209,1902.2945,206.302,72.57,203.72,C7H14O,3-hepten-1-ol,---,299.15,Yaw
CCC=CCCCO,2,4.940566407719209,1902.2945,206.302,72.57,203.72,C7H14O,4-hepten-1-ol,---,299.15,Yaw
CC=CCCCCO,2,4.940566407719209,1902.2945,206.302,72.57,203.72,C7H14O,5-hepten-1-ol,---,299.15,Yaw
C=CCCCCCO,2,4.940566407719209,1902.2945,206.302,72.57,203.72,C7H14O,6-hepten-1-ol,---,299.15,Yaw
CCCC=CC(C)O,2,4.508356407719209,1748.4119,209.082,64.57,206.48,C7H14O,1-methyl-2-hexen-1-ol,---,299.15,Yaw
CCCC=C(C)CO,2,4.508356407719209,1748.4119,209.082,64.57,206.48,C7H14O,2-methyl-2-hexen-1-ol,---,299.15,Yaw
CCCC(C)=CCO,2,4.508356407719209,1748.4119,209.082,64.57,206.48,C7H14O,3-methyl-2-hexen-1-ol,---,299.15,Yaw
CCC(C)C=CCO,2,4.508356407719209,1748.4119,209.082,64.57,206.48,C7H14O,4-methyl-2-hexen-1-ol,---,299.15,Yaw
CC(C)CC=CCO,2,4.508356407719209,1748.4119,209.082,64.57,206.48,C7H14O,5-methyl-2-hexen-1-ol,---,299.15,Yaw
CCC=CCC(C)O,2,4.508356407719209,1748.4119,209.082,64.57,206.48,C7H14O,1-methyl-3-hexen-1-ol,58927-81-4,299.15,Yaw
CCC=CC(C)CO,2,4.508356407719209,1748.4119,209.082,64.57,206.48,C7H14O,2-methyl-3-hexen-1-ol,---,299.15,Yaw
CCC=C(C)CCO,2,4.508356407719209,1748.4119,209.082,64.57,206.48,C7H14O,3-methyl-3-hexen-1-ol,---,299.15,Yaw
CCC(C)=CCCO,2,4.508356407719209,1748.4119,209.082,64.57,206.48,C7H14O,4-methyl-3-hexen-1-ol,---,299.15,Yaw
CC(C)C=CCCO,2,4.508356407719209,1748.4119,209.082,64.57,206.48,C7H14O,5-methyl-3-hexen-1-ol,---,299.15,Yaw
CC=CCCC(C)O,2,4.508356407719209,1748.4119,209.082,64.57,206.48,C7H14O,1-methyl-4-hexen-1-ol,---,299.15,Yaw
CC=CCC(C)CO,2,4.508356407719209,1748.4119,209.082,64.57,206.48,C7H14O,2-methyl-4-hexen-1-ol,---,299.15,Yaw
CC=CC(C)CCO,2,4.508356407719209,1748.4119,209.082,64.57,206.48,C7H14O,3-methyl-4-hexen-1-ol,---,299.15,Yaw
CC=C(C)CCCO,2,4.508356407719209,1748.4119,209.082,64.57,206.48,C7H14O,4-methyl-4-hexen-1-ol,---,299.15,Yaw
CC(C)=CCCCO,2,4.508356407719209,1748.4119,209.082,64.57,206.48,C7H14O,5-methyl-4-hexen-1-ol,---,299.15,Yaw
C=CCCCC(C)O,2,4.508356407719209,1748.4119,209.082,64.57,206.48,C7H14O,1-methyl-5-hexen-1-ol,---,299.15,Yaw
C=CCCC(C)CO,2,4.508356407719209,1748.4119,209.082,64.57,206.48,C7H14O,2-methyl-5-hexen-1-ol,---,299.15,Yaw
C=CCC(C)CCO,2,4.508356407719209,1748.4119,209.082,64.57,206.48,C7H14O,3-methyl-5-hexen-1-ol,---,299.15,Yaw
C=CC(C)CCCO,2,4.508356407719209,1748.4119,209.082,64.57,206.48,C7H14O,4-methyl-5-hexen-1-ol,---,299.15,Yaw
C=C(C)CCCCO,2,4.508356407719209,1748.4119,209.082,64.57,206.48,C7H14O,5-methyl-5-hexen-1-ol,---,299.15,Yaw
CCC=CC(C)(C)O,2,4.132756407719208,1614.2368,211.862,56.57,209.42,C7H14O,2-methyl-3-hexen-2-ol,18812-62-9,299.15,Yaw
C=CCCC(C)(C)O,2,4.1131364077192085,1606.5709,211.862,26.0,209.58,C7H14O,2-methyl-5-hexen-2-ol,16744-89-1,299.15,Yaw
CCC=C(C)C(C)O,2,4.132756407719208,1614.2368,211.862,56.57,209.42,C7H14O,3-methyl-3-hexen-2-ol,110383-31-8,299.15,Yaw
CC=CC(O)C(C)C,2,3.960746407719209,1552.0052,213.113,26.0,210.96,C7H14O,2-methyl-4-hexen-3-ol,4798-60-1,299.15,Yaw
CC=CC(C)(O)CC,2,4.132756407719208,1614.2368,211.862,56.57,209.42,C7H14O,3-methyl-4-hexen-3-ol,60111-14-0,299.15,Yaw
C=CCC(C)(O)CC,2,4.1131364077192085,1606.5709,211.862,26.0,209.58,C7H14O,3-methyl-5-hexen-3-ol,1569-44-4,299.15,Yaw
C=CC(C)C(O)CC,2,4.1131364077192085,1606.5709,211.862,26.0,209.58,C7H14O,4-methyl-5-hexen-3-ol,1838-77-3,299.15,Yaw