smiles,code,A [log10(atm)],B [C],C [C],TMIN [C],TMAX [C],FORMULA,NAME,CAS No,mp [K],mp_type
Cc1ccc(N)c([N+](=O)[O-])c1,3,3.427616407719209,1646.883,185.869,124.37,340.87,C7H8N2O2,4-methyl-2-nitroaniline,89-62-3,389.45,Yaw
CNc1ccccc1[N+](=O)[O-],3,3.427616407719209,1646.883,185.869,124.37,340.87,C7H8N2O2,N-methyl-2-nitroaniline,612-28-2,311.15,Yaw
Cc1ccc(N)cc1[N+](=O)[O-],3,3.427616407719209,1646.883,185.869,124.37,340.87,C7H8N2O2,4-methyl-3-nitroaniline,119-32-4,377.91,Yaw
COc1ccccc1,"1,2",4.445336407719209,1674.4509,223.096,41.59,180.94,C7H8O,anisole,100-66-3,235.65,Yaw
OCc1ccccc1,"1,2",5.035766407719208,2058.5071,203.928,93.69,230.84,C7H8O,benzyl alcohol,100-51-6,257.85,Yaw
Cc1cccc(O)c1,"1,2",4.002736407719208,1305.0894,124.0,97.82,228.57,C7H8O,m-cresol,108-39-4,285.39,Yaw
Cc1ccccc1O,"1,2",4.373456407719209,1619.2661,179.098,79.81,218.52,C7H8O,o-cresol,95-48-7,304.19,Yaw
Cc1ccc(O)cc1,"1,2",4.695946407719209,1886.6598,199.914,86.95,229.37,C7H8O,p-cresol,106-44-5,307.93,Yaw
COc1ccccc1O,"1,2",5.0169464077192085,2203.8004,234.222,85.27,233.09,C7H8O2,guaiacol,90-05-1,304.65,Yaw
COc1ccc(O)cc1,3,8.271786407719208,3148.7323,189.743,120.4,205.29,C7H8O2,p-methoxyphenol,150-76-5,328.65,Yaw
Cc1cccc(O)c1O,3,15.199056407719208,5081.1137,143.388,154.1,197.67,C7H8O2,"1,2-dihydroxy-3-methylbenzene",488-17-5,341.15,Yaw
COc1cc(C)oc(=S)c1,3,10.79686640771921,5685.865,273.15,175.34,268.58,C7H8O2S,6-methyl-4-methoxy-2h-pyran-2-thion,52911-98-5,353.11049734572754,ML
CSc1cc(=O)cc(C)o1,3,5.519066407719208,3274.126,273.15,169.31,354.31,C7H8O2S,2-methyl-6-(methylthio)-4h-pyran-4-one,52911-99-6,331.93170817013765,ML
Cc1ccccc1S,"1,2",4.326696407719209,1784.5278,217.395,70.08,225.89,C7H8S,o-methylthiophenol,137-06-4,288.15,Yaw
Cc1cccc(S)c1,"1,2",4.334426407719208,1720.2333,201.827,74.95,224.67,C7H8S,m-methylthiophenol,108-40-7,253.15,Yaw
Cc1ccc(S)cc1,"1,2",4.327026407719209,1717.5372,201.882,44.0,224.73,C7H8S,p-methylthiophenol,106-45-6,317.15,Yaw
CSc1ccccc1,"1,2",4.412846407719209,1722.6866,202.33,71.39,216.63,C7H8S,methyl phenyl sulfide,100-68-5,258.15,Yaw
SCc1ccccc1,"1,2",4.348816407719209,1723.8911,201.854,74.87,224.03,C7H8S,benzenemethanethiol,100-53-8,243.95,Yaw
C[Se]c1ccccc1,3,5.869286407719208,2740.0,273.15,80.39,218.93,C7H8Se,methyl phenyl selenide,4346-64-9,253.73064612462812,ML
C=CC#CC(C)(C)Cl,2,3.2732164077192083,1317.6236,217.072,38.58,226.25,C7H9Cl,5-chloro-5-methyl-1-hexen-3-yne,819-44-3,222.58242656252528,ML
NCc1ccccc1,"1,2",4.503446407719209,1807.5913,216.379,66.75,213.75,C7H9N,benzylamine,100-46-9,227.15,Yaw
CNc1ccccc1,"1,2",4.905036407719209,2097.9464,232.863,76.3,222.82,C7H9N,N-methylaniline,100-61-8,216.15,Yaw
Cc1cccc(N)c1,"1,2",4.239536407719209,1557.1683,164.447,89.98,230.92,C7H9N,m-toluidine,108-44-1,241.9,Yaw
Cc1ccccc1N,"1,2",4.190726407719208,1529.673,165.164,86.78,228.1,C7H9N,o-toluidine,95-53-4,256.8,Yaw
Cc1ccc(N)cc1,"1,2",4.399796407719209,1765.1881,200.348,43.75,230.32,C7H9N,p-toluidine,106-49-0,316.9,Yaw
Cc1cccnc1C,"1,2",4.2908764077192085,1608.2229,211.251,49.33,191.83,C7H9N,"2,3-dimethylpyridine",583-61-9,257.95,Yaw
Cc1ccnc(C)c1,"1,2",4.400096407719209,1627.5039,212.029,47.09,185.01,C7H9N,"2,4-dimethylpyridine",108-47-4,209.25,Yaw
Cc1ccc(C)nc1,"1,2",4.3360164077192085,1606.355,212.418,45.97,185.69,C7H9N,"2,5-dimethylpyridine",589-93-5,257.65,Yaw
Cc1cccc(C)n1,"1,2",4.372376407719209,1573.4804,216.018,35.61,170.46,C7H9N,"2,6-dimethylpyridine",108-48-5,267.0,Yaw
Cc1ccncc1C,"1,2",5.081856407719209,1879.3958,206.275,63.65,186.84,C7H9N,"3,4-dimethylpyridine",583-58-4,262.15,Yaw
Cc1cncc(C)c1,"1,2",4.483336407719209,1693.9197,208.276,57.89,196.74,C7H9N,"3,5-dimethylpyridine",591-22-0,266.65,Yaw
CCc1ccccn1,"1,2",4.399766407719208,1597.9122,214.531,39.89,175.32,C7H9N,2-ethylpyridine,100-71-0,210.05,Yaw
CCc1cccnc1,"1,2",4.463436407719208,1672.3959,209.638,53.97,192.15,C7H9N,3-ethylpyridine,536-78-7,196.25,Yaw
CCc1ccncc1,"1,2",4.421576407719209,1668.6001,209.027,55.73,195.92,C7H9N,4-ethylpyridine,536-75-4,182.65,Yaw
C=CC#CCCC,"1,2",4.7100064077192085,1574.2457,225.484,13.37,131.57,C7H10,1-hepten-3-yne,2384-73-8,175.2255992526478,ML
C#CC(=CC)CC,2,4.032926407719208,1370.8477,229.237,2.57,138.1,C7H10,3-ethyl-3-penten-1-yne,14272-54-9,195.1685260597542,ML
C=CC=CC=CC,2,4.947076407719209,1633.4668,224.511,14.72,127.07,C7H10,"1,3,5-heptatriene",2196-23-8,296.15,Yaw
CC1=CCCC=C1,2,4.298566407719209,1426.5063,226.179,4.67,130.67,C7H10,"2-methyl-1,3-cyclohexadiene",1489-57-2,189.36736208288144,ML
C1=CCC2CC2C1,"1,2",3.9409764077192087,1348.055,217.061,14.49,153.29,C7H10,bicyclo(4.1.0)hept-3-ene,16554-83-9,298.15,Yaw
C=C(C)C#CCC,"1,2",5.305336407719208,1740.8247,223.677,18.57,124.19,C7H10,2-methyl-1-hexen-3-yne,23056-94-2,196.23672576752253,ML
CC1=CC=CCC1,"1,2",4.209496407719208,1375.9011,228.806,-2.89,123.22,C7H10,"1-methyl-1,3-cyclohexadiene",1489-56-1,197.19637377568165,ML
Cc1ccc(N)cc1N,"1,2",4.728496407719208,2208.3969,182.99,151.14,315.8,C7H10N2,m-toluenediamine,95-80-7,371.25,Yaw
CCCCC#CC=O,2,3.756106407719209,1525.3977,209.638,60.97,231.86,C7H10O,2-heptynal,1846-67-9,224.8,Yaw
CCCC#CCC=O,2,3.756106407719209,1525.3977,209.638,60.97,231.86,C7H10O,3-heptynal,---,224.8,Yaw
CCC#CCCC=O,2,3.756106407719209,1525.3977,209.638,60.97,231.86,C7H10O,4-heptynal,---,224.8,Yaw
CC#CCCCC=O,2,3.756106407719209,1525.3977,209.638,60.97,231.86,C7H10O,5-heptynal,---,224.8,Yaw
C#CCCCCC=O,2,3.756106407719209,1525.3977,209.638,60.97,231.86,C7H10O,6-heptynal,---,224.8,Yaw
C#CCCC(C)C=O,2,3.478296407719209,1422.2452,212.418,52.97,235.21,C7H10O,2-methyl-5-hexynal,---,224.8,Yaw
C#CCC(C)CC=O,2,3.478296407719209,1422.2452,212.418,52.97,235.21,C7H10O,3-methyl-5-hexynal,---,224.8,Yaw
C#CC(C)CCC=O,2,3.478296407719209,1422.2452,212.418,52.97,235.21,C7H10O,4-methyl-5-hexynal,---,224.8,Yaw
CCC(C)C#CC=O,2,3.478296407719209,1422.2452,212.418,52.97,235.21,C7H10O,4-methyl-2-hexynal,---,224.8,Yaw
CC(C)CC#CC=O,2,3.478296407719209,1422.2452,212.418,52.97,235.21,C7H10O,5-methyl-2-hexynal,---,224.8,Yaw
CCc1ccc(C)o1,2,4.583706407719209,1556.5996,223.121,17.67,140.34,C7H10O,2-ethyl-5-methylfuran,1703-52-2,213.4012172271056,ML
CCCc1ccco1,2,4.379416407719209,1492.7043,224.372,14.07,141.63,C7H10O,2-propylfuran,4229-91-8,198.4692438707178,ML
CCCCC#CC(=O)O,3,4.818086407719209,2177.9668,180.605,145.0,302.0,C7H10O2,2-heptynoic acid,---,269.83,Yaw
CCCC#CCC(=O)O,3,4.818086407719209,2177.9668,180.605,145.0,302.0,C7H10O2,3-heptynoic acid,---,269.83,Yaw
CCC#CCCC(=O)O,3,4.818086407719209,2177.9668,180.605,145.0,302.0,C7H10O2,4-heptynoic acid,---,269.83,Yaw
CC#CCCCC(=O)O,3,4.818086407719209,2177.9668,180.605,145.0,302.0,C7H10O2,5-heptynoic acid,---,269.83,Yaw
C#CCCCCC(=O)O,"1,2",4.811966407719209,2036.0757,191.738,112.0,260.0,C7H10O2,6-heptynoic acid,30964-00-2,269.83,Yaw
CCC(C)C#CC(=O)O,3,4.818086407719209,2177.9668,180.605,145.0,302.0,C7H10O2,4-methyl-2-hexynoic acid,---,269.83,Yaw
CC(C)CC#CC(=O)O,3,4.818086407719209,2177.9668,180.605,145.0,302.0,C7H10O2,5-methyl-2-hexynoic acid,---,269.83,Yaw
CCC#CC(C)C(=O)O,3,4.818086407719209,2177.9668,180.605,145.0,302.0,C7H10O2,2-methyl-3-hexynoic acid,---,269.83,Yaw
CC(C)C#CCC(=O)O,3,4.818086407719209,2177.9668,180.605,145.0,302.0,C7H10O2,5-methyl-3-hexynoic acid,---,269.83,Yaw
CC#CCC(C)C(=O)O,3,4.818086407719209,2177.9668,180.605,145.0,302.0,C7H10O2,2-methyl-4-hexynoic acid,---,269.83,Yaw
CC#CC(C)CC(=O)O,3,4.818086407719209,2177.9668,180.605,145.0,302.0,C7H10O2,3-methyl-4-hexynoic acid,---,269.83,Yaw
CCCc1cccs1,"1,2",4.243296407719209,1557.0141,208.885,45.36,186.07,C7H10S,2-propylthiophene,1551-27-5,221.92,Yaw
CCCc1ccsc1,2,4.286336407719209,1576.5145,208.41,47.22,187.17,C7H10S,3-propylthiophene,1518-75-8,221.92,Yaw
CC(C)c1cccs1,"1,2",4.264326407719208,1543.6021,209.93,41.26,179.54,C7H10S,2-isopropylthiophene,4095-22-1,221.92,Yaw
CC(C)c1ccsc1,"1,2",4.224736407719209,1540.8483,209.17,43.2,183.53,C7H10S,3-isopropylthiophene,29488-27-5,221.92,Yaw
CCc1ccsc1C,2,4.130046407719209,1522.1712,209.17,44.07,188.37,C7H10S,2-methyl-3-ethylthiophene,53119-51-0,221.92,Yaw
CCc1csc(C)c1,"1,2",4.221206407719209,1565.5638,208.03,48.53,191.33,C7H10S,2-methyl-4-ethyl thiophene,13678-54-1,214.15,Yaw
CCc1ccc(C)s1,"1,2",4.2146764077192085,1554.0825,208.581,46.37,188.51,C7H10S,2-methyl-5-ethyl thiophene,40323-88-4,204.65,Yaw
CCc1sccc1C,2,4.276686407719208,1572.9672,208.41,47.05,187.24,C7H10S,3-methyl-2-ethylthiophene,31805-48-8,221.92,Yaw
CCc1cscc1C,2,4.667036407719209,1724.2154,210.055,53.27,184.86,C7H10S,3-methyl-4-ethyl thiophene,---,221.92,Yaw
CCc1cc(C)cs1,2,4.680666407719209,1727.9468,209.777,53.57,184.76,C7H10S,3-methyl-5-ethylthiophene,---,221.92,Yaw
Cc1csc(C)c1C,2,4.961746407719208,1813.9019,206.187,58.9,183.0,C7H10S,"2,3,4-trimethylthiophene",1795-04-6,246.95,Yaw
Cc1cc(C)c(C)s1,2,4.401476407719208,1615.9369,207.745,49.48,186.34,C7H10S,"2,3,5-trimethylthiophene",1795-05-7,221.92,Yaw
C#CC(Cl)(CC)CC,2,3.651416407719209,1466.2664,212.071,52.97,225.57,C7H11Cl,3-chloro-3-ethyl-1-pentyne,6080-79-1,235.0869775701143,ML
CCCCCC#CCl,2,3.2035364077192083,1301.7781,216.866,39.17,231.64,C7H11Cl,1-chloro-1-heptyne,51556-10-6,221.71626584816036,ML
CC#CCCCCCl,2,3.883516407719209,1551.1025,209.916,59.17,223.05,C7H11Cl,1-chloro-5-heptyne,70396-13-3,242.76850277036536,ML
CCC#CCCCCl,2,3.821526407719209,1528.4697,210.472,57.57,223.69,C7H11Cl,7-chloro-3-heptyne,51575-85-0,233.2430019698285,ML
CC(C)(C)COC(=O)C(Cl)(Cl)Cl,3,2.5127764077192083,1525.0,273.15,73.95,416.35,C7H11Cl3O2,"trichloroacetic acid, 2,2-dimethylpropyl ester",57392-56-0,288.1300670683342,ML
CCc1c[nH]cc1C,2,3.9674164077192087,1549.5223,209.986,54.97,212.64,C7H11N,3-ethyl-4-methyl-1H-pyrrole,488-92-6,274.65,Yaw
CC(C)c1ccc[nH]1,2,4.208016407719208,1636.1794,208.248,60.47,210.53,C7H11N,2-isopropylpyrrole,7696-51-7,274.65,Yaw
CCCn1cccc1,2,3.9519064077192088,1486.6758,215.615,39.27,191.59,C7H11N,1-propyl-1H-pyrrole,5145-64-2,274.65,Yaw
CCCc1cc[nH]c1,2,4.718776407719209,1748.5994,209.986,54.97,185.83,C7H11N,3-propyl-1H-pyrrole,1551-09-3,274.65,Yaw
Cc1ccc(C)n1C,"1,2",4.448996407719209,1697.6317,208.526,59.67,200.74,C7H11N,"1,2,5-trimethyl-1H-pyrrole",930-87-0,274.65,Yaw
C=CCCCCC#N,2,3.371266407719209,1381.0637,209.986,52.97,239.84,C7H11N,6-heptenenitrile,5048-25-9,210.61587642480296,ML
O=C=NC1CCCCC1,3,2.9556164077192086,1330.7664,217.608,57.55,283.7,C7H11NO,cyclohexyl isocyanate,3173-53-3,193.15,Yaw
CCC1=CCCC1,"1,2",4.135216407719208,1364.4199,224.102,2.7,131.76,C7H12,1-ethylcyclopentene,2146-38-5,154.75,Yaw
CCC1C=CCC1,"1,2",4.074886407719209,1296.9303,220.424,-2.66,123.24,C7H12,3-ethylcyclopentene,694-35-9,164.22,Yaw
CCC1CC=CC1,"1,2",4.076306407719208,1298.6717,220.34,-2.34,123.65,C7H12,4-ethylcyclopentene,3742-38-9,164.22,Yaw
CC1=C(C)CCC1,"1,2",4.133466407719209,1334.7245,220.057,1.87,128.21,C7H12,"1,2-dimethylcyclopentene",765-47-9,182.75,Yaw
CC1=CC(C)CC1,2,3.724076407719209,1196.4339,221.52,-8.06,128.0,C7H12,"1,3-dimethylcyclopentene",62184-82-1,164.22,Yaw
CC1=CCC(C)C1,"1,2",4.010056407719208,1261.331,221.292,-7.18,118.78,C7H12,"1,4-dimethylcyclopentene",19550-48-2,164.22,Yaw
CC1=CCCC1C,"1,2",4.0144364077192085,1295.3457,220.622,-0.89,128.21,C7H12,"1,5-dimethylcyclopentene",16491-15-9,155.15,Yaw
CC1(C)C=CCC1,2,3.600526407719209,1159.4767,222.28,-10.75,129.13,C7H12,"3,3-dimethylcyclopentene",58049-91-5,164.22,Yaw
CC1C=CCC1C,2,3.704596407719209,1224.0141,230.655,-11.51,128.97,C7H12,"3,cis-4-dimethylcyclopentene",56039-55-5,164.22,Yaw
CC1(C)CC=CC1,2,3.600526407719209,1159.4767,222.28,-10.75,129.13,C7H12,"4,4-dimethylcyclopentene",19037-72-0,164.22,Yaw
CC1=CCCCC1,"1,2",4.091206407719208,1341.0252,218.932,5.62,134.88,C7H12,1-methylcyclohexene,591-49-1,153.75,Yaw
CC1C=CCCC1,"1,2",3.977336407719209,1286.1944,219.531,0.03,130.33,C7H12,3-methylcyclohexene,591-48-0,149.64,Yaw
CC1CC=CCC1,"1,2",4.031056407719209,1301.7923,220.091,0.11,128.91,C7H12,4-methylcyclohexene,591-47-9,157.74,Yaw
C#CCCCCC,"1,2",4.015476407719208,1264.8103,215.204,-0.69,125.31,C7H12,1-heptyne,628-71-7,192.26,Yaw
CC#CCCCC,"1,2",4.0687964077192085,1336.8674,216.566,8.13,138.25,C7H12,2-heptyne,1119-65-9,284.44,Yaw
CCC#CCCC,"1,2",4.031676407719209,1296.7967,214.492,4.84,133.11,C7H12,3-heptyne,2586-89-2,142.65,Yaw
C#CC(C)CCC,"1,2",4.0053564077192085,1210.7209,217.275,-11.59,109.56,C7H12,3-methyl-1-hexyne,40276-93-5,184.42,Yaw
C#CCC(C)CC,"1,2",4.005106407719208,1230.8036,216.308,-7.2,115.97,C7H12,4-methyl-1-hexyne,52713-81-2,184.42,Yaw
C#CCCC(C)C,"1,2",4.019756407719209,1245.5237,218.0,-6.92,116.93,C7H12,5-methyl-1-hexyne,2203-80-7,149.15,Yaw
CC#CC(C)CC,"1,2",3.9640864077192086,1242.3018,213.849,-1.3,125.29,C7H12,4-methyl-2-hexyne,20198-49-6,165.55,Yaw
CC#CCC(C)C,"1,2",3.986826407719208,1270.9919,216.338,0.27,128.5,C7H12,5-methyl-2-hexyne,53566-37-3,180.25,Yaw
CCC#CC(C)C,"1,2",3.970666407719208,1233.2318,215.386,-4.63,120.68,C7H12,2-methyl-3-hexyne,36566-80-0,156.55,Yaw
C#CC(C)(C)CC,"1,2",3.875086407719208,1113.2408,217.282,-23.87,94.2,C7H12,"3,3-dimethyl-1-pentyne",918-82-1,184.42,Yaw
C#CC(C)C(C)C,"1,2",3.9333964077192087,1163.2947,215.748,-15.67,104.51,C7H12,"3,4-dimethyl-1-pentyne",61064-08-2,184.42,Yaw
C#CCC(C)(C)C,"1,2",3.906586407719209,1150.3722,218.39,-19.62,100.67,C7H12,"4,4-dimethyl-1-pentyne",13361-63-2,198.15,Yaw
CC#CC(C)(C)C,"1,2",3.882986407719208,1169.9884,218.311,-15.32,108.32,C7H12,"4,4-dimethyl-2-pentyne",999-78-0,190.75,Yaw
C#CC(CC)CC,"1,2",4.005176407719208,1207.1954,217.409,-12.31,108.5,C7H12,3-ethyl-1-pentyne,21020-26-8,184.42,Yaw
C1CCC2CC2C1,"1,2",4.131396407719208,1405.4073,223.677,10.08,143.23,C7H12,bicyclo[4.1.0]heptane,286-08-8,258.6165747126529,ML
C1=CCCCCC1,"1,2",4.260936407719209,1486.9786,234.63,7.48,140.88,C7H12,cycloheptene,628-92-2,217.15,Yaw
C=C=CCCCC,"1,2",4.840436407719209,1599.6932,226.735,11.27,125.67,C7H12,"1,2-heptadiene",2384-90-9,167.48,Yaw
C=CCC=CCC,"1,2",4.746226407719209,1534.0291,230.21,1.27,114.89,C7H12,"1,4-heptadiene",5675-22-9,167.48,Yaw
C=CCCC=CC,"1,2",4.733706407719208,1534.5839,229.932,2.07,116.27,C7H12,"1,5-heptadiene",1541-23-7,167.48,Yaw
C=CCCCC=C,"1,2",4.635056407719208,1486.618,231.183,-3.03,111.83,C7H12,"1,6-heptadiene",3070-53-9,143.95,Yaw
CC=CC=CCC,"1,2",4.748876407719209,1586.552,226.04,13.27,130.66,C7H12,"2,4-heptadiene",628-72-8,167.48,Yaw
C=CCCC(=C)C,"1,2",4.810736407719209,1531.8454,231.573,-2.65,108.11,C7H12,"2-methyl-1,5-hexadiene",4049-81-4,144.35,Yaw
CC=CC=C(C)C,"1,2",4.299716407719209,1490.3568,225.067,16.07,147.64,C7H12,"2-methyl-2,4-hexadiene",28823-41-8,198.95,Yaw
C=C(C)C=C(C)C,"1,2",4.733406407719209,1531.7511,230.155,1.43,115.43,C7H12,"2,4-dimethyl-1,3-pentadiene",1000-86-8,159.15,Yaw
CC12CCCC1C2,"1,2",4.130776407719209,1335.407,230.183,-8.04,118.51,C7H12,"1-methylbicyclo(3,1,0)hexane",4625-24-5,218.3923965615157,ML
C=C1CCCCC1,"1,2",3.958326407719209,1265.2785,217.15,-0.46,128.81,C7H12,methylenecyclohexane,1192-37-6,166.45,Yaw
CC(C)=C=C(C)C,"1,2",4.881466407719208,1538.5083,232.323,-4.81,103.56,C7H12,"2,4-dimethyl-2,3-pentadiene",1000-87-9,167.48,Yaw
BrC1CCCCCC1Br,3,7.899246407719209,4699.365,381.092,99.41,237.39,C7H12Br2,"1,2-dibromocycloheptane",29974-68-3,282.2457793268111,ML
O=C=NCCCCCCCl,3,5.101386407719208,2541.63,259.03,89.85,270.44,C7H12ClNO,chlorohexyl isocyanate,13654-91-6,278.76504495727903,ML
CCNc1nc(Cl)nc(NCC)n1,3,7.536076407719209,4541.9052,273.15,209.16,354.61,C7H12ClN5,simazine,122-34-9,499.15,Yaw
CC(C)(C)COC(=O)C(Cl)Cl,3,6.509286407719209,2996.0,273.15,83.94,209.43,C7H12Cl2O2,neopentyl dichloroethanoate,900000-71-7,264.76975588233137,ML
ClCCSC1CCCC1Cl,3,6.848046407719208,3444.6,273.15,121.47,252.98,C7H12Cl2S,(2-chloroethyl)(2-chlorocyclopentyl)-sulfide,900000-14-8,287.4662585991144,ML
ClCCCCCCC(Cl)(Cl)Cl,3,3.125936407719209,1197.626,117.987,121.22,305.97,C7H12Cl4,"1,1,1,7-tetrachloroheptane",3922-36-9,287.6689522327221,ML
O=C1CCCCCC1,"1,2",4.071546407719208,1541.0178,199.984,58.91,208.72,C7H12O,cycloheptanone,502-42-1,252.15,Yaw
C=CCC(O)C=CC,2,4.737116407719209,1766.1028,212.696,54.17,185.43,C7H12O,"1,5-heptadien-4-ol",5638-26-6,291.76559486366705,ML
C=CCC(O)CC=C,"1,2",4.926816407719208,1798.9581,214.086,50.17,174.81,C7H12O,"1,6-heptadien-4-ol",2883-45-6,292.17690207159256,ML
CCCCC=CC=O,2,4.750356407719209,1757.8317,209.916,55.17,185.16,C7H12O,2-heptenal,18829-55-5,219.8,Yaw
CCCC=CCC=O,2,4.137036407719209,1548.1301,214.086,43.17,189.49,C7H12O,3-heptenal,89896-73-1,219.8,Yaw
CCC=CCCC=O,2,4.750356407719209,1757.8317,209.916,55.17,185.16,C7H12O,4-heptenal,6728-31-0,219.8,Yaw
CC/C=C/CCC=O,2,4.750356407719209,1757.8317,209.916,55.17,185.16,C7H12O,trans-4-heptenal,926-22-6,219.8,Yaw
CC=CCCCC=O,2,4.750356407719209,1757.8317,209.916,55.17,185.16,C7H12O,5-heptenal,---,219.8,Yaw
C=CCCCCC=O,2,4.750356407719209,1757.8317,209.916,55.17,185.16,C7H12O,6-heptenal,---,219.8,Yaw
CCCC=C(C)C=O,2,3.959646407719209,1487.2504,215.476,39.17,191.03,C7H12O,2-methyl-2-hexenal,---,219.8,Yaw
CCCC(C)=CC=O,2,3.959646407719209,1487.2504,215.476,39.17,191.03,C7H12O,3-methyl-2-hexenal,---,219.8,Yaw
CCC(C)C=CC=O,2,3.959646407719209,1487.2504,215.476,39.17,191.03,C7H12O,4-methyl-2-hexenal,---,219.8,Yaw
CC(C)CC=CC=O,2,3.959646407719209,1487.2504,215.476,39.17,191.03,C7H12O,5-methyl-2-hexenal,---,219.8,Yaw
CCC=CC(C)C=O,2,3.959646407719209,1487.2504,215.476,39.17,191.03,C7H12O,2-methyl-3-hexenal,---,219.8,Yaw
CCC=C(C)CC=O,2,3.959646407719209,1487.2504,215.476,39.17,191.03,C7H12O,3-methyl-3-hexenal,---,219.8,Yaw
CCC(C)=CCC=O,2,3.959646407719209,1487.2504,215.476,39.17,191.03,C7H12O,4-methyl-3-hexenal,---,219.8,Yaw
CC(C)C=CCC=O,2,3.959646407719209,1487.2504,215.476,39.17,191.03,C7H12O,5-methyl-3-hexenal,---,219.8,Yaw
CC=CCC(C)C=O,2,3.959646407719209,1487.2504,215.476,39.17,191.03,C7H12O,2-methyl-4-hexenal,---,219.8,Yaw
CC=CC(C)CC=O,2,3.959646407719209,1487.2504,215.476,39.17,191.03,C7H12O,3-methyl-4-hexenal,---,219.8,Yaw
CC=C(C)CCC=O,2,3.959646407719209,1487.2504,215.476,39.17,191.03,C7H12O,4-methyl-4-hexenal,---,219.8,Yaw
CC(C)=CCCC=O,2,3.959646407719209,1487.2504,215.476,39.17,191.03,C7H12O,5-methyl-4-hexenal,---,219.8,Yaw
C=CCCC(C)C=O,2,3.959646407719209,1487.2504,215.476,39.17,191.03,C7H12O,2-methyl-5-hexenal,---,219.8,Yaw
C=CCC(C)CC=O,2,3.959646407719209,1487.2504,215.476,39.17,191.03,C7H12O,3-methyl-5-hexenal,---,219.8,Yaw
C=CC(C)CCC=O,2,3.959646407719209,1487.2504,215.476,39.17,191.03,C7H12O,4-methyl-5-hexenal,---,219.8,Yaw
C=C(C)CCCC=O,2,3.959646407719209,1487.2504,215.476,39.17,191.03,C7H12O,5-methyl-5-hexenal,---,219.8,Yaw
CCC(C)=C(C)C=O,2,3.637866407719208,1376.5037,218.256,31.17,194.26,C7H12O,"2,3-dimethyl-2-pentenal",---,219.8,Yaw
C=CCC(C)(C)C=O,"1,2",4.463186407719209,1544.2779,221.453,21.97,149.57,C7H12O,"2,4-dimethyl-2-pentenal",5497-67-6,219.8,Yaw
CC=CC(C)(C)C=O,2,3.637866407719208,1376.5037,218.256,31.17,194.26,C7H12O,"2,2-dimethyl-3-pentenal",---,219.8,Yaw
CC=C(C)C(C)C=O,2,3.637866407719208,1376.5037,218.256,31.17,194.26,C7H12O,"2,3-dimethyl-3-pentenal",---,219.8,Yaw
CC(C)=CC(C)C=O,2,3.637866407719208,1376.5037,218.256,31.17,194.26,C7H12O,"2,4-dimethyl-3-pentenal",---,219.8,Yaw
C=CC(C)C(C)C=O,2,3.637866407719208,1376.5037,218.256,31.17,194.26,C7H12O,"2,3-dimethyl-4-pentenal",---,219.8,Yaw
C=C(C)CC(C)C=O,2,3.637866407719208,1376.5037,218.256,31.17,194.26,C7H12O,"2,4-dimethyl-4-pentenal",---,219.8,Yaw
C=CC(=O)CCCC,2,3.980516407719208,1505.923,213.198,43.73,196.08,C7H12O,1-hepten-3-one,2918-13-0,203.7435908709,ML
CCC=CCC(C)=O,2,3.980516407719208,1505.923,213.198,43.73,196.08,C7H12O,4-hepten-2-one,24332-22-7,218.03027744613487,ML
C=CCCCC(C)=O,2,3.6829264077192088,1402.7543,215.754,36.37,199.03,C7H12O,6-hepten-2-one,21889-88-3,231.91337166420521,ML
C=CCCC(=O)CC,"1,2",3.2707764077192083,1290.7736,216.588,33.97,218.05,C7H12O,6-hepten-3-one,2565-39-1,229.61216880975465,ML
CCC/C=C\C(C)=O,2,3.980516407719208,1505.923,213.198,43.73,196.08,C7H12O,cis-3-hepten-2-one,69668-88-8,212.90619173613106,ML
CCC/C=C/C(C)=O,2,3.973766407719209,1503.5866,213.252,43.57,196.14,C7H12O,trans-3-hepten-2-one,5609-09-6,216.93900414218854,ML
CC=CCCC(C)=O,2,3.9397564077192087,1491.8148,213.53,42.77,196.45,C7H12O,trans-5-hepten-2-one,1071-94-9,222.21033723798146,ML