smiles,code,A [log10(atm)],B [C],C [C],TMIN [C],TMAX [C],FORMULA,NAME,CAS No,mp [K],mp_type
CCC(C)C(CC)CO,2,5.437416407719208,2054.5927,206.9,73.85,193.11,C8H18O,3-methyl-2-ethyl-1-pentanol,---,212.0,Yaw
CCC(CO)CC(C)C,"1,2",4.932796407719208,1874.6228,203.533,71.6,201.2,C8H18O,4-methyl-2-ethyl-1-pentanol,106-67-2,212.0,Yaw
CCC(CC)C(C)CO,2,5.329386407719209,2016.7371,207.456,72.25,193.62,C8H18O,2-methyl-3-ethyl-1-pentanol,---,212.0,Yaw
CCC(C)(CC)CCO,2,5.329386407719209,2016.7371,207.456,72.25,193.62,C8H18O,3-methyl-3-ethyl-1-pentanol,---,212.0,Yaw
CCC(CCO)C(C)C,2,5.329386407719209,2016.7371,207.456,72.25,193.62,C8H18O,4-methyl-3-ethyl-1-pentanol,---,212.0,Yaw
CCC(C)C(C)(C)CO,2,4.785556407719208,1694.7653,183.18,71.05,194.73,C8H18O,"2,2,3-trimethyl-1-pentanol",57409-53-7,212.0,Yaw
CC(C)CC(C)(C)CO,"1,2",4.961576407719209,1835.1244,204.867,63.33,188.89,C8H18O,"2,2,4-trimethyl-1-pentanol",123-44-4,203.15,Yaw
CC(C)C(C)C(C)CO,2,6.132826407719209,2722.7417,273.0,66.76,193.88,C8H18O,"2,3,4-trimethyl-1-pentanol",6570-88-3,212.0,Yaw
CC(CO)CC(C)(C)C,"1,2",4.950906407719208,1924.1212,218.14,63.51,195.66,C8H18O,"2,4,4-trimethyl-1-pentanol",16325-63-6,212.0,Yaw
CC(C)C(C)(C)CCO,2,5.123516407719208,1944.5274,208.568,69.05,194.65,C8H18O,"3,3,4-trimethyl-1-pentanol",---,212.0,Yaw
CC(CCO)C(C)(C)C,2,5.123516407719208,1944.5274,208.568,69.05,194.65,C8H18O,"3,4,4-trimethyl-1-pentanol",16325-64-7,212.0,Yaw
CCC(CC)C(C)(C)O,"1,2",4.647876407719209,1562.3658,180.146,59.16,179.28,C8H18O,2-methyl-3-ethyl-2-pentanol,19780-63-3,212.0,Yaw
CCC(C)(CC)C(C)O,2,4.618726407719208,1767.0677,211.626,60.25,197.64,C8H18O,3-methyl-3-ethyl-2-pentanol,66576-22-5,212.0,Yaw
CCC(C(C)C)C(C)O,"1,2",5.505036407719208,2404.8762,273.0,52.61,189.12,C8H18O,4-methyl-3-ethyl-2-pentanol,66576-23-6,212.0,Yaw
CCC(C)(C)C(C)(C)O,2,4.606646407719208,1937.6815,249.666,49.02,200.37,C8H18O,"2,3,3-trimethyl-2-pentanol",23171-85-9,272.65,Yaw
CC(C)C(C)C(C)(C)O,2,4.7921664077192085,2127.5414,273.0,45.83,200.72,C8H18O,"2,3,4-trimethyl-2-pentanol",66576-26-9,212.0,Yaw
CC(C)(C)CC(C)(C)O,"1,2",4.509816407719208,1440.4533,175.404,50.0,166.85,C8H18O,"2,4,4-trimethyl-2-pentanol",690-37-9,253.15,Yaw
CC(C)C(C)(C)C(C)O,"1,2",5.357706407719208,2345.3355,273.0,51.01,190.81,C8H18O,"3,3,4-trimethyl-2-pentanol",19411-41-7,212.0,Yaw
CC(O)C(C)C(C)(C)C,"1,2",4.515896407719208,1571.4634,188.484,27.0,184.35,C8H18O,"3,4,4-trimethyl-2-pentanol",10575-56-1,300.15,Yaw
CCC(O)(CC)C(C)C,"1,2",5.466866407719209,2361.6887,273.0,48.42,184.17,C8H18O,2-methyl-3-ethyl-3-pentanol,597-05-7,212.0,Yaw
CCC(C)(O)C(C)(C)C,"1,2",4.836546407719209,1867.2934,232.58,45.4,179.12,C8H18O,"2,2,3-trimethyl-3-pentanol",7294-05-5,267.15,Yaw
CC(C)C(O)C(C)(C)C,"1,2",4.073086407719209,1109.1303,123.457,62.83,170.58,C8H18O,"2,2,4-trimethyl-3-pentanol",5162-48-1,261.85,Yaw
CC(C)C(C)(O)C(C)C,"1,2",5.506506407719209,2448.0438,288.073,43.31,182.21,C8H18O,"2,3,4-trimethyl-3-pentanol",3054-92-0,212.0,Yaw
CC(C)C(CO)C(C)C,2,5.597996407719208,2485.3011,273.0,59.31,196.19,C8H18O,3-methyl-2-isopropyl-1-butanol,18593-92-5,212.0,Yaw
CCC(CC)(CC)CO,2,5.224806407719209,1980.0673,208.012,70.65,194.13,C8H18O,"2,2-diethyl-1-butanol",13023-60-4,212.0,Yaw
CCC(C)(CO)C(C)C,2,5.224806407719209,1980.0673,208.012,70.65,194.13,C8H18O,"2,3-dimethyl-2-ethyl-1-butanol",---,212.0,Yaw
CCC(CO)C(C)(C)C,2,5.224806407719209,1980.0673,208.012,70.65,194.13,C8H18O,"3,3-dimethyl-2-ethyl-1-butanol",66576-56-5,212.0,Yaw
CCCCCCCOC,2,5.193726407719209,1844.0222,214.086,46.57,162.81,C8H18O,1-methoxy-heptane,629-32-3,179.15,Yaw
CCCCCC(C)OC,2,4.304816407719208,1550.4365,219.202,31.45,168.04,C8H18O,2-methoxy-heptane,---,179.15,Yaw
CCCCC(CC)OC,2,4.304816407719208,1550.4365,219.202,31.45,168.04,C8H18O,3-methoxy-heptane,---,179.15,Yaw
CCCC(CCC)OC,2,4.304816407719208,1550.4365,219.202,31.45,168.04,C8H18O,4-methoxy-heptane,---,179.15,Yaw
CCCCCCOCC,2,4.8341164077192085,1725.7533,216.032,40.97,164.67,C8H18O,1-ethoxy-hexane,5756-43-4,179.15,Yaw
CCCCC(C)OCC,2,4.304816407719208,1550.4365,219.202,31.45,168.04,C8H18O,2-ethoxy-hexane,---,179.15,Yaw
CCCC(CC)OCC,2,4.304816407719208,1550.4365,219.202,31.45,168.04,C8H18O,3-ethoxy-hexane,---,179.15,Yaw
CCCCCOCCC,2,4.722026407719208,1688.1008,216.533,39.13,165.3,C8H18O,1-propoxy-pentane,18641-82-2,179.15,Yaw
CCCOC(C)CCC,2,4.3291664077192085,1558.4858,219.035,31.93,167.87,C8H18O,2-propoxy-pentane,---,179.15,Yaw
CCCOC(CC)CC,2,4.3291664077192085,1558.4858,219.035,31.93,167.87,C8H18O,3-propoxy-pentane,---,179.15,Yaw
CCCCCOC(C)C,2,4.1978064077192085,1515.0489,219.952,29.29,168.84,C8H18O,1-isopropoxy-pentane,5756-37-6,179.15,Yaw
CCCC(C)OC(C)C,2,4.100486407719209,1482.8295,220.661,27.25,169.61,C8H18O,2-isopropoxy-pentane,---,179.15,Yaw
CCC(CC)OC(C)C,2,4.100486407719209,1482.8295,220.661,27.25,169.61,C8H18O,3-isopropoxy-pentane,---,179.15,Yaw
CCCCOCCCC,"1,2",4.6517064077192085,1668.6423,216.866,38.57,166.67,C8H18O,dibutyl ether,142-96-1,175.3,Yaw
CCC(C)OC(C)CC,"1,2",4.690976407719209,1610.2356,222.412,22.61,144.39,C8H18O,di-sec-butyl ether,6863-58-7,173.15,Yaw
CC(C)(C)OC(C)(C)C,"1,2",4.699436407719209,1564.9083,226.249,11.57,129.54,C8H18O,di-tert-butyl ether,6163-66-2,195.0,Yaw
CCCCOCC(C)C,2,5.193726407719209,1844.0222,214.086,46.57,162.81,C8H18O,butyl isobutyl ether,17071-47-5,179.15,Yaw
CC(C)COC(C)(C)C,2,4.2746664077192085,1540.4709,219.41,30.85,168.26,C8H18O,tert-butyl isobutyl ether,33021-02-2,179.15,Yaw
CCCCOC(C)(C)C,2,4.2746664077192085,1540.4709,219.41,30.85,168.26,C8H18O,butyl tert-butyl ether,1000-63-1,179.15,Yaw
CC(C)COCC(C)C,"1,2",4.685006407719209,1614.1206,221.979,23.86,146.21,C8H18O,isobutyl ether,628-55-7,173.15,Yaw
CCCCCCC(O)CO,3,5.479826407719209,2355.2462,186.008,133.97,268.78,C8H18O2,"1,2-octanediol",1117-86-8,303.15,Yaw
CCCCCC(O)CCO,3,6.064066407719208,2587.8086,182.95,142.77,266.09,C8H18O2,"1,3-octanediol",23433-05-8,316.91,Yaw
CCCCC(O)CCCO,3,7.518436407719209,3164.5618,177.112,159.57,261.35,C8H18O2,"1,4-octanediol",51916-47-3,316.91,Yaw
OCCCCCCCCO,3,6.557216407719208,2783.6755,180.726,149.17,264.22,C8H18O2,"1,8-octanediol",629-41-4,333.15,Yaw
CCCCC(O)CC(C)O,3,3.7687264077192086,1669.07,199.079,96.36,282.24,C8H18O2,"2,4-octanediol",90162-24-6,316.91,Yaw
CCCC(O)C(C)C(C)O,3,3.7687264077192086,1669.07,199.079,96.36,282.24,C8H18O2,"3-methyl-2,4-heptanediol",6964-04-1,316.91,Yaw
CCCC(O)C(CC)CO,"1,2",5.099286407719209,2204.3327,188.232,127.57,271.17,C8H18O2,"2-ethyl-1,3-hexanediol",94-96-2,233.15,Yaw
CC(C)(O)CCC(C)(C)O,"1,2",5.109626407719209,2098.1273,196.572,88.5,239.76,C8H18O2,"2,5-dimethyl-2,5-hexanediol",110-03-2,362.0,Yaw
CC(C)(O)CC(C)(C)CO,3,3.908566407719209,1725.5505,197.684,86.0,280.63,C8H18O2,"2,2,4-trimethyl-1,4-pentanediol",80864-10-4,359.15,Yaw
CC(C)C(O)C(C)(C)CO,"1,2",5.105516407719208,2162.7186,191.554,118.01,258.59,C8H18O2,"2,2,4-trimethyl-1,3-pentanediol",144-19-4,323.15,Yaw
CCCCC(C)(CO)CO,3,6.006776407719208,2565.0323,183.228,141.97,266.32,C8H18O2,"2-butyl-2-methyl-1,3-propanediol",3121-83-3,316.95,Yaw
CC[C@@H](O)CC[C@H](O)CC,3,3.7687264077192086,1669.07,199.079,96.36,282.24,C8H18O2,"(3R,6R)-3,6-octanediol",129619-37-0,316.91,Yaw
CCC(O)CCC(O)CC,3,3.7687264077192086,1669.07,199.079,96.36,282.24,C8H18O2,"(3S,6S)-3,6-octanediol",136705-66-3,316.91,Yaw
CC(C)(C)OOC(C)(C)C,3,2.1851364077192086,931.0235,220.201,8.78,273.94,C8H18O2,di-t-butyl peroxide,110-05-4,233.15,Yaw
CCCOCCOCCC,3,2.4573364077192084,1094.0726,239.358,12.84,268.02,C8H18O2,"1,2-dipropoxyethane",18854-56-3,208.69614672915623,ML
CCCCCCOCCO,"1,2",5.068426407719208,2058.8298,198.157,98.11,233.7,C8H18O2,ethylene glycol monohexyl ether,112-25-4,228.05,Yaw
CCC(CC)COCCO,3,5.248396407719209,2099.0856,199.079,95.36,225.2,C8H18O2,2-(2-ethylbutoxy)ethanol,4468-93-3,228.05,Yaw
CC(C)CS(=O)(=O)CC(C)C,"1,2",4.468696407719209,1998.5992,182.394,132.37,297.15,C8H18O2S,diisobutyl sulfone,10495-45-1,290.15,Yaw
CCCCS(=O)(=O)CCCC,3,3.9200464077192088,1904.1789,175.208,153.05,350.95,C8H18O2S,dibutyl sulfone,598-04-9,318.0,Yaw
CC(C)(C)S(=O)(=O)C(C)(C)C,"1,2",4.453746407719208,1937.3703,187.148,118.69,279.38,C8H18O2S,di-tert-butylsulfone,1886-75-5,403.05,Yaw
CCOCCOCCOCC,"1,2",5.168336407719208,2321.5001,260.178,69.15,216.78,C8H18O3,diethylene glycol diethyl ether,112-36-7,228.85,Yaw
CCCCOCCOCCO,"1,2",4.639666407719209,1939.986,187.13,110.39,260.01,C8H18O3,diethylene glycol monobutyl ether,112-34-5,205.15,Yaw
CCCCOS(=O)OCCCC,3,3.4620764077192083,1498.6513,192.124,88.37,281.97,C8H18O3S,dibutyl sulfite,626-85-7,226.8696683615744,ML
CC(C)COS(=O)OCC(C)C,3,3.0164964077192087,1322.5383,197.684,72.37,289.36,C8H18O3S,diisobutyl sulfite,18748-27-1,229.95254057239995,ML
COCCOCCOCCOC,"1,2",4.840686407719208,2009.4672,199.12,99.84,243.53,C8H18O4,triethylene glycol dimethyl ether,112-49-2,229.35,Yaw
CCCCOS(=O)(=O)OCCCC,3,3.086406407719209,1499.6035,186.05,115.85,352.33,C8H18O4S,dibutyl sulfate,625-22-9,193.45,Yaw
CCCCC(CC)COS(=O)(=O)O,3,3.1582964077192086,1531.2253,185.002,118.87,350.9,C8H18O4S,2-ethylhexyl sulfate,72214-01-8,193.45,Yaw
CCC(C)(S(=O)(=O)CC)S(=O)(=O)CC,3,4.670396407719209,2848.155,254.648,169.85,397.2,C8H18O4S2,"2,2-bis(ethylsulfonyl)butane",76-20-0,349.15,Yaw
OCCOCCOCCOCCO,"1,2",4.887316407719209,2323.4755,145.859,197.44,360.75,C8H18O5,tetraethylene glycol,112-60-7,268.15,Yaw
CCCCCCCCS,"1,2",4.671186407719208,1872.1243,200.731,85.0,227.66,C8H18S,1-octanethiol,111-88-6,223.95,Yaw
CCCCCCC(C)S,2,4.336006407719209,1735.3322,204.245,74.89,225.83,C8H18S,2-octanethiol,3001-66-9,194.15,Yaw
CCCCCC(S)CC,2,4.279276407719209,1713.8164,204.523,73.69,226.27,C8H18S,3-octanethiol,---,202.81,Yaw
CCCCC(S)CCC,2,4.243476407719209,1700.6618,204.801,72.89,226.57,C8H18S,4-octanethiol,---,202.81,Yaw
CCCCCC(C)CS,2,4.529346407719209,1805.6084,202.677,79.0,224.35,C8H18S,2-methyl-1-heptanethiol,---,202.81,Yaw
CCCCC(C)CCS,2,4.490236407719209,1791.2677,202.955,78.2,224.64,C8H18S,3-methyl-1-heptanethiol,---,202.81,Yaw
CCCC(C)CCCS,2,4.451666407719209,1777.116,203.233,77.4,224.92,C8H18S,4-methyl-1-heptanethiol,---,202.81,Yaw
CCC(C)CCCCS,2,4.413606407719208,1763.1493,203.511,76.6,225.21,C8H18S,5-methyl-1-heptanethiol,---,202.81,Yaw
CC(C)CCCCCS,2,4.376046407719208,1749.3641,203.789,75.8,225.5,C8H18S,6-methyl-1-heptanethiol,---,202.81,Yaw
CCCCCC(C)(C)S,2,4.2663364077192085,1709.0615,204.623,73.4,226.38,C8H18S,2-methyl-2-heptanethiol,---,202.81,Yaw
CCCCC(C)C(C)S,2,4.230706407719208,1695.9669,204.901,72.6,226.68,C8H18S,3-methyl-2-heptanethiol,---,202.81,Yaw
CCCC(C)CC(C)S,2,4.195546407719209,1683.0366,205.179,71.8,226.98,C8H18S,4-methyl-2-heptanethiol,---,202.81,Yaw
CCC(C)CCC(C)S,2,4.160826407719209,1670.2675,205.457,71.0,227.28,C8H18S,5-methyl-2-heptanethiol,---,202.81,Yaw
CC(C)CCCC(C)S,2,4.1265564077192085,1657.6565,205.735,70.2,227.58,C8H18S,6-methyl-2-heptanethiol,---,202.81,Yaw
CC(C)(C)CC(C)(C)S,2,3.392766407719209,1386.9803,212.835,50.17,235.77,C8H18S,tert-octyl mercaptan,141-59-3,199.0,Yaw
CCCCCCCSC,2,5.000376407719209,1898.2272,203.647,72.21,200.29,C8H18S,2-thianonane,20291-61-6,213.95,Yaw
CCCCCCSCC,2,4.952726407719209,1881.516,203.925,71.41,200.55,C8H18S,3-thianonane,7309-44-6,210.97,Yaw
CCCCCSCCC,2,4.905806407719209,1865.0533,204.203,70.61,200.82,C8H18S,4-thianonane,42841-80-5,210.97,Yaw
CCCCSCCCC,"1,2",4.214556407719209,1660.612,205.468,66.97,218.86,C8H18S,5-thianonane,544-40-1,198.13,Yaw
CCCCCC(C)SC,2,4.554586407719208,1741.6609,206.427,64.21,203.03,C8H18S,3-methyl-2-thiaoctane,---,210.97,Yaw
CCCCC(C)CSC,2,4.513496407719209,1727.2017,206.705,63.41,203.32,C8H18S,4-methyl-2-thiaoctane,---,210.97,Yaw
CCCC(C)CCSC,2,4.472986407719208,1712.9417,206.983,62.61,203.6,C8H18S,5-methyl-2-thiaoctane,---,210.97,Yaw
CCC(C)CCCSC,2,4.433036407719209,1698.8768,207.261,61.81,203.89,C8H18S,6-methyl-2-thiaoctane,---,210.97,Yaw
CCCCCSC(C)C,2,4.513496407719209,1727.2017,206.705,63.41,203.32,C8H18S,2-methyl-3-thiaoctane,---,210.97,Yaw
CCCCC(C)SCC,2,4.472986407719208,1712.9417,206.983,62.61,203.6,C8H18S,4-methyl-3-thiaoctane,---,210.97,Yaw
CCCC(C)CSCC,2,4.433036407719209,1698.8768,207.261,61.81,203.89,C8H18S,5-methyl-3-thiaoctane,---,210.97,Yaw
CCSCCC(C)CC,2,4.393646407719209,1685.0029,207.539,61.01,204.18,C8H18S,6-methyl-3-thiaoctane,---,210.97,Yaw
CCC(C)SC(C)CC,"1,2",4.438716407719209,1665.6012,210.194,53.37,192.35,C8H18S,di-sec-butyl sulfide,626-26-6,210.97,Yaw
CC(C)(C)SC(C)(C)C,"1,2",4.4290164077192085,1610.6746,214.615,40.65,175.57,C8H18S,di-tert-butyl sulfide,107-47-1,264.15,Yaw
CC(C)CSCC(C)C,"1,2",4.393116407719209,1673.2339,208.526,58.17,200.37,C8H18S,diisobutyl sulfide,592-65-4,167.65,Yaw
SCCCCCCCCS,"1,2",4.218176407719208,1880.6128,176.286,131.85,303.81,C8H18S2,"1,8-octanedithiol",1191-62-4,260.55789796729823,ML
CC(S)CCCCCCS,2,4.012436407719209,1853.9639,181.421,133.17,318.11,C8H18S2,"1,7-octanedithiol",---,255.0267373044771,ML
CCC(S)CCCCCS,2,3.984156407719208,1842.0082,181.699,132.37,318.42,C8H18S2,"1,6-octanedithiol",---,253.4934719860063,ML
CCCC(S)CCCCS,2,3.956196407719209,1830.1772,181.977,131.57,318.73,C8H18S2,"1,5-octanedithiol",---,251.1122371724041,ML
CCCCC(S)CCCS,2,3.928526407719208,1818.4688,182.255,130.77,319.05,C8H18S2,"1,4-octanedithiol",---,254.08378116745004,ML
CCCCCC(S)CCS,2,3.901146407719208,1806.8812,182.533,129.97,319.36,C8H18S2,"1,3-octanedithiol",---,260.135594359346,ML
CCCCCCC(S)CS,2,3.874056407719209,1795.4124,182.811,129.17,319.68,C8H18S2,"1,2-octanedithiol",---,236.41,Yaw
CCCCCCCSSC,2,4.632666407719209,1949.2103,190.12,109.14,259.87,C8H18S2,"2,3-dithiadecane",---,236.41,Yaw
CCCCCCSSCC,2,4.556496407719209,1919.6961,190.676,107.54,260.44,C8H18S2,"3,4-dithiadecane",---,236.41,Yaw
CCCCCSSCCC,2,4.482286407719209,1890.9219,191.232,105.94,261.01,C8H18S2,"4,5-dithiadecane",---,236.41,Yaw
CCCCSSCCCC,"1,2",4.470646407719209,1890.3598,191.788,105.84,261.58,C8H18S2,"5,6-dithiadecane",629-45-8,202.16,Yaw
CCCCCCSCSC,2,5.045716407719208,2108.9748,187.34,117.14,257.15,C8H18S2,"2,4-dithiadecane",---,236.41,Yaw
CCCCCSCSCC,2,4.9585064077192085,2075.2831,187.896,115.54,257.68,C8H18S2,"3,5-dithiadecane",---,236.41,Yaw
CCCCSCSCCC,2,4.873696407719208,2042.4965,188.452,113.94,258.22,C8H18S2,"4,6-dithiadecane",---,236.41,Yaw
CC(C)CSSCC(C)C,"1,2",4.4567464077192085,1848.6417,194.946,96.75,249.9,C8H18S2,di-isobutyl disulfide,1518-72-5,236.41,Yaw
CCC(C)SSC(C)CC,2,3.880626407719209,1656.9097,196.336,91.25,266.54,C8H18S2,di-sec-butyl disulfide,5943-30-6,236.41,Yaw
CC(C)(C)SSC(C)(C)C,2,3.738136407719209,1601.2647,197.726,87.25,268.15,C8H18S2,di-tert-butyl disulfide,110-06-5,270.65,Yaw
CCCCCCCCN,"1,2",4.836126407719209,1861.8379,206.136,71.05,204.4,C8H19N,octylamine,111-86-4,272.75,Yaw
CCCCC(CC)CN,"1,2",4.807406407719209,1817.5692,209.027,62.73,194.31,C8H19N,2-ethylhexylamine,104-75-6,284.58,Yaw
CC(C)CCCC(C)N,2,4.2137364077192085,1611.0583,212.974,48.89,198.78,C8H19N,"6-methyl-2-heptanamine, ()",5984-58-7,322.04,Yaw
CCCCCCC(C)N,"1,2",4.797296407719209,1796.693,210.472,50.56,189.12,C8H19N,"2-octanamine, ()",44855-57-4,323.71,Yaw
CCCCCC[C@H](C)N,2,4.567326407719209,1734.8219,210.472,58.57,196.16,C8H19N,(S)-2-aminooctane,34566-04-6,284.58,Yaw
CCCCCC[C@@H](C)N,2,4.567326407719209,1734.8219,210.472,58.57,196.16,C8H19N,(R)-2-aminooctane,34566-05-7,284.58,Yaw
CC(C)(C)CC(C)(C)N,"1,2",4.791966407719209,1711.6645,217.144,39.37,163.99,C8H19N,tert-octylamine,107-45-9,206.25,Yaw
CCCCCCCNC,2,5.070456407719209,1873.8149,210.194,59.37,182.69,C8H19N,methylheptylamine,36343-05-2,207.15,Yaw
CCCCCCNCC,2,4.736466407719209,1759.6017,212.14,53.77,184.57,C8H19N,ethylhexylamine,20352-67-4,207.15,Yaw
CCCCNCCCC,"1,2",4.892206407719208,1804.0217,211.904,54.45,181.03,C8H19N,dibutylamine,111-92-2,211.15,Yaw
CC(C)CNCC(C)C,"1,2",4.806106407719208,1712.1494,217.395,38.65,162.65,C8H19N,diisobutylamine,110-96-3,203.15,Yaw
CCC(C)NC(C)CC,2,3.8189064077192088,1444.2077,218.812,34.57,191.72,C8H19N,di-sec-butylamine,626-23-3,207.15,Yaw
CCCCCC(C)NC,2,4.603926407719209,1714.2035,212.974,51.37,185.41,C8H19N,N-methyl-2-heptanamine,540-43-2,207.15,Yaw
CCCCCCN(C)C,"1,2",4.655756407719209,1693.7839,215.754,43.37,173.2,C8H19N,dimethylhexylamine,4385-04-0,196.62,Yaw
CCCCN(CC)CC,"1,2",4.793436407719208,1698.1039,218.256,36.17,159.74,C8H19N,diethylbutylamine,4444-68-2,196.62,Yaw
CCN(C(C)C)C(C)C,"1,2",4.788746407719208,1663.8374,220.897,28.57,149.86,C8H19N,N-ethyl-N-isopropyl-2-propanamine,7087-68-5,196.62,Yaw
CCCN(CC)CCC,"1,2",5.153836407719208,1797.1437,217.7,37.77,152.63,C8H19N,N-ethyl-N-propyl-1-propanamine,20634-92-8,196.62,Yaw
CC(C)N(C)C(C)(C)C,2,4.254806407719209,1532.2381,220.758,28.97,166.78,C8H19N,N-isopropyl-N-methyl-tert-butylamine,85523-00-8,196.62,Yaw
CC(C)N(CCO)C(C)C,"1,2",4.988736407719209,1962.042,203.244,82.37,215.31,C8H19NO,"N,N-diisopropylethanolamine",96-80-0,283.3076266681028,ML
CCCN(CCC)CCO,3,3.064376407719209,1427.9048,201.576,41.2,315.15,C8H19NO,2-(dipropylamino)ethanol,3238-75-3,232.91604172528545,ML
CC(N)CCCC(C)(C)O,3,3.007036407719209,1403.6933,202.41,84.77,316.32,C8H19NO,6-amino-2-methyl-2-heptanol,372-66-7,335.4343507707484,ML
CC(C)(C)N(CCO)CCO,3,3.711486407719209,1757.512,195.97,118.3,319.36,C8H19NO2,N-tert-butyldiethanolamine,2160-93-2,321.65,Yaw
CCOP(=S)(OCC)SCCSCC,3,7.733206407719209,4420.5,288.05,171.75,306.73,C8H19O2PS3,disulfoton,298-04-4,248.15,Yaw
CCOP(=S)(OCC)OCCSCC,3,7.540126407719208,4110.9,273.15,163.21,294.72,C8H19O3PS2,demeton,298-03-3,244.8638583322704,ML
CCOP(=O)(OCC)SCCSCC,3,7.152986407719208,3991.0,273.15,168.64,309.31,C8H19O3PS2,demeton-S,126-75-0,265.8775916572767,ML
CC[Si](Cl)(CC)O[Si](Cl)(CC)CC,3,4.220406407719208,1842.18,205.52,69.85,264.5,C8H20Cl2OSi2,"1,3-dichloro-1,1,3,3-tetraethyldisiloxane",18825-03-1,237.35066637474117,ML
CC(C)(N)CCC(C)(C)N,3,3.7997164077192087,1587.6088,204.912,52.0,248.86,C8H20N2,"2,5-dimethyl-2,5-hexanediamine",23578-35-0,325.15,Yaw
NCCCCCCCCN,"1,2",4.788516407719209,2006.6977,193.514,107.37,253.66,C8H20N2,"1,8-octanediamine",373-44-4,325.15,Yaw
CN(C)CCCCN(C)C,"1,2",4.866826407719208,1829.4883,209.36,52.0,191.33,C8H20N2,"N,N,N',N'-tetramethyl-1,4-butanediamine",111-51-3,325.15,Yaw
CC(C)NCCNC(C)C,"1,2",4.7761664077192085,1811.8579,208.804,52.0,196.07,C8H20N2,"N,N'-diisopropylethylenediamine",4013-94-9,325.15,Yaw
CNCCCCCCNC,3,3.126406407719209,1329.528,212.347,53.18,258.22,C8H20N2,"N,N'-dimethyl-1,6-hexanediamine",13093-04-4,325.15,Yaw
CCCCCCNCCN,3,3.126406407719209,1329.528,212.347,53.18,258.22,C8H20N2,N-hexylethylenediamine,7261-70-3,325.15,Yaw
CC(CCN(C)C)N(C)C,"1,2",4.777046407719209,1793.1584,210.319,52.0,190.3,C8H20N2,"N,N,N',N'-tetramethyl-1,3-butanediamine",97-84-7,325.15,Yaw
CCCCN(N)CCCC,2,5.035726407719209,1836.4951,212.347,53.18,175.53,C8H20N2,"1,1-dibutylhydrazine",7422-80-2,269.63897116722364,ML
CC(C)NCCCN(C)C,3,3.126406407719209,1329.528,212.347,53.18,258.22,C8H20N2,"N'-isopropyl-N,N'-dimethyl-1,3-propane-diamine",63905-13-5,325.15,Yaw
CC(C)CCCCCNN,2,5.035726407719209,1836.4951,212.347,53.18,175.53,C8H20N2,6-methyl-2-heptylhydrazine,7535-34-4,257.24957940437025,ML
CCO[Si](OCC)(OCC)OCC,3,4.060046407719208,1807.383,276.363,27.87,204.45,C8H20O4Si,ethyl silicate,78-10-4,190.65,Yaw
CCOP(=S)(OCC)OP(=S)(OCC)OCC,3,7.711756407719209,4211.7,273.15,165.91,295.18,C8H20O5P2S2,sulfotep,3689-24-5,274.38401857169606,ML
CC[Si](CC)(CC)CC,"1,2",4.439256407719209,1750.8532,241.553,35.48,181.54,C8H20Si,tetraethylsilane,631-36-7,190.65,Yaw
NCCNCCNCCNCCN,"1,2",5.368256407719208,2789.3087,179.543,205.24,370.92,C8H23N5,tetraethylenepentamine,112-57-2,243.0,Yaw
C[Si](C)(Cl)O[Si](C)(C)O[Si](C)(C)O[Si](C)(C)Cl,3,5.094966407719209,2387.91,246.68,95.63,251.43,C8H24Cl2O3Si4,"1,7-dichloro-octamethyltetrasiloxane",2474-02-4,211.25,Yaw
C[Si]1(C)O[Si](C)(C)O[Si](C)(C)O[Si](C)(C)O1,3,4.019906407719208,1445.5146,184.239,60.73,204.46,C8H24O4Si4,octamethylcyclotetrasiloxane,556-67-2,290.25,Yaw
O=C=NS(=O)(=O)C(F)(F)C(F)(F)C(F)(F)C(F)(F)C(F)(F)C(F)(F)C(F)(F)C(F)(F)F,3,3.953496407719209,1342.96,143.357,86.83,224.33,C9F17NO3S,heptadecafluoro-1-octanesulfonyl-isocyanate,34834-20-3,309.49238958056736,ML
FC(F)(F)C(F)(F)C(F)(F)C1(F)C(F)(F)C(F)(F)C(F)(F)C(F)(F)C1(F)F,3,4.022796407719208,1303.082,200.876,19.85,149.25,C9F18,perfluoro(propyl-cyclohexane),374-59-4,258.4484982679343,ML