smiles,code,A [log10(atm)],B [C],C [C],TMIN [C],TMAX [C],FORMULA,NAME,CAS No,mp [K],mp_type
CCCC(C)CCCCl,2,4.448436407719209,1719.9111,207.97,63.77,206.73,C8H17Cl,1-chloro-4-methylheptane,---,231.25,Yaw
CCC(C)CCCCCl,2,4.448436407719209,1719.9111,207.97,63.77,206.73,C8H17Cl,1-chloro-5-methylheptane,---,231.25,Yaw
CC(C)CCCCCCl,2,4.448436407719209,1719.9111,207.97,63.77,206.73,C8H17Cl,1-chloro-6-methylheptane,---,231.25,Yaw
CCCCCC(C)(C)Cl,2,4.044646407719209,1576.1613,211.028,54.97,210.0,C8H17Cl,2-chloro-2-methylheptane,4325-49-9,231.25,Yaw
CCCCC(C)C(C)Cl,2,4.044646407719209,1576.1613,211.028,54.97,210.0,C8H17Cl,2-chloro-3-methylheptane,---,231.25,Yaw
CCCC(C)CC(C)Cl,2,4.044646407719209,1576.1613,211.028,54.97,210.0,C8H17Cl,2-chloro-4-methylheptane,---,231.25,Yaw
CCC(C)CCC(C)Cl,2,4.044646407719209,1576.1613,211.028,54.97,210.0,C8H17Cl,2-chloro-5-methylheptane,---,231.25,Yaw
CC(C)CCCC(C)Cl,2,4.044646407719209,1576.1613,211.028,54.97,210.0,C8H17Cl,2-chloro-6-methylheptane,2350-19-8,231.25,Yaw
CCCCC(Cl)C(C)C,2,4.044646407719209,1576.1613,211.028,54.97,210.0,C8H17Cl,3-chloro-2-methylheptane,---,231.25,Yaw
CCCCC(C)(Cl)CC,2,4.044646407719209,1576.1613,211.028,54.97,210.0,C8H17Cl,3-chloro-3-methylheptane,5272-02-6,231.25,Yaw
CCCC(C)C(Cl)CC,2,4.044646407719209,1576.1613,211.028,54.97,210.0,C8H17Cl,3-chloro-4-methylheptane,---,231.25,Yaw
CCC(C)CC(Cl)CC,2,4.044646407719209,1576.1613,211.028,54.97,210.0,C8H17Cl,3-chloro-5-methylheptane,---,231.25,Yaw
CCC(Cl)CCC(C)C,2,4.044646407719209,1576.1613,211.028,54.97,210.0,C8H17Cl,3-chloro-6-methylheptane,---,231.25,Yaw
CC(C)CCC(C)(C)Cl,2,4.220826407719208,1638.9502,209.638,58.97,208.48,C8H17Cl,"2-chloro-2,5-dimethylhexane",29342-44-7,231.25,Yaw
CCCC(C)(Cl)C(C)C,2,4.220826407719208,1638.9502,209.638,58.97,208.48,C8H17Cl,"3-chloro-2,3-dimethylhexane",101654-30-2,231.25,Yaw
CCCC(C)(Cl)CCC,2,4.220826407719208,1638.9502,209.638,58.97,208.48,C8H17Cl,4-chloro-4-methylheptane,61764-94-1,231.25,Yaw
CCCCC(CC)CCl,2,4.464026407719208,1727.182,208.248,63.97,206.64,C8H17Cl,3-(chloromethyl)heptane,123-04-6,231.25,Yaw
CC(C)(C)CC(C)(C)Cl,2,4.220826407719208,1638.9502,209.638,58.97,208.48,C8H17Cl,"2-chloro-2,4,4-trimethylpentane",6111-88-2,247.15,Yaw
OCCOCCOCCOCCCl,3,5.442306407719208,3153.8568,274.17,109.85,339.27,C8H17ClO4,"11-chloro-3,6,9-trioxa-1-undecanol",5197-66-0,274.2217865764354,ML
CCCCN(CCCl)CCCl,3,2.529366407719209,1511.3076,273.15,69.54,405.07,C8H17Cl2N,"2,2'-dichloro-N-butyldiethylamine",42520-97-8,252.52028271442316,ML
CC(C)(C)N(CCCl)CCCl,3,3.1713664077192085,1894.901,273.15,101.92,387.02,C8H17Cl2N,N-tert-butylbis(2-chloroethyl)amine,10125-86-7,282.21208502756764,ML
CC(C)CN(CCCl)CCCl,3,3.153996407719209,1884.5213,273.15,101.15,387.4,C8H17Cl2N,N-isobutylbis(2-chloroethyl)amine,87289-70-1,254.6106380053224,ML
CCC(C)N(CCCl)CCCl,3,3.3037764077192087,1974.0176,273.15,107.6,384.25,C8H17Cl2N,N-(sec-butyl)bis(2-chloroethyl)amine,900000-28-4,258.56248567865117,ML
CCCCCCCCF,"1,2",4.334476407719209,1558.2665,216.505,34.21,169.83,C8H17F,1-fluorooctane,463-11-6,209.15,Yaw
CCCCCCC(C)F,2,3.792016407719209,1391.7629,219.368,25.97,179.3,C8H17F,2-fluorooctane,---,197.96652996123885,ML
CCCCCC(F)CC,2,3.792016407719209,1391.7629,219.368,25.97,179.3,C8H17F,3-fluorooctane,---,198.20899992577958,ML
CCCCC(F)CCC,2,3.792016407719209,1391.7629,219.368,25.97,179.3,C8H17F,4-fluorooctane,---,198.87758389242654,ML
CCCCCC(C)CF,2,3.792016407719209,1391.7629,219.368,25.97,179.3,C8H17F,1-fluoro-2-methylheptane,---,198.14639813738145,ML
CCCCC(C)CCF,2,3.792016407719209,1391.7629,219.368,25.97,179.3,C8H17F,1-fluoro-3-methylheptane,---,198.41786625984756,ML
CCCC(C)CCCF,2,3.792016407719209,1391.7629,219.368,25.97,179.3,C8H17F,1-fluoro-4-methylheptane,---,198.92233255105134,ML
CCC(C)CCCCF,2,3.792016407719209,1391.7629,219.368,25.97,179.3,C8H17F,1-fluoro-5-methylheptane,---,199.3161795742652,ML
CC(C)CCCCCF,2,3.792016407719209,1391.7629,219.368,25.97,179.3,C8H17F,1-fluoro-6-methylheptane,---,197.69286604168087,ML
CCCCCC(C)(C)F,2,3.482396407719208,1287.8042,222.148,17.97,182.65,C8H17F,2-fluoro-2-methylheptane,---,198.7219724338115,ML
CCCCC(C)C(C)F,2,3.482396407719208,1287.8042,222.148,17.97,182.65,C8H17F,2-fluoro-3-methylheptane,---,191.82966666105008,ML
CCCC(C)CC(C)F,2,3.482396407719208,1287.8042,222.148,17.97,182.65,C8H17F,2-fluoro-4-methylheptane,---,195.95564904722255,ML
CCC(C)CCC(C)F,2,3.482396407719208,1287.8042,222.148,17.97,182.65,C8H17F,2-fluoro-5-methylheptane,---,193.8580919658185,ML
CC(C)CCCC(C)F,2,3.482396407719208,1287.8042,222.148,17.97,182.65,C8H17F,2-fluoro-6-methylheptane,---,194.04309335703022,ML
CCCCC(F)C(C)C,2,3.482396407719208,1287.8042,222.148,17.97,182.65,C8H17F,3-fluoro-2-methylheptane,---,194.68114944861995,ML
CCCCC(C)(F)CC,2,3.482396407719208,1287.8042,222.148,17.97,182.65,C8H17F,3-fluoro-3-methylheptane,---,195.53278213027122,ML
CCCC(C)C(F)CC,2,3.482396407719208,1287.8042,222.148,17.97,182.65,C8H17F,3-fluoro-4-methylheptane,---,194.17283502474643,ML
CCC(C)CC(F)CC,2,3.482396407719208,1287.8042,222.148,17.97,182.65,C8H17F,3-fluoro-5-methylheptane,---,196.47330632119807,ML
CCC(F)CCC(C)C,2,3.482396407719208,1287.8042,222.148,17.97,182.65,C8H17F,3-fluoro-6-methylheptane,---,193.91350621448032,ML
CC(C)CCC(C)(C)F,2,3.482396407719208,1287.8042,222.148,17.97,182.65,C8H17F,"2-fluoro-2,5-dimethylhexane",---,195.50941439753433,ML
CCCC(C)(F)C(C)C,2,3.482396407719208,1287.8042,222.148,17.97,182.65,C8H17F,"3-fluoro-2,3-dimethylhexane",---,195.60497955711685,ML
CCCCCCCCI,"1,2",4.419546407719209,1851.9379,193.484,100.46,256.18,C8H17I,1-iodooctane,629-27-6,227.45,Yaw
CCCCCCC(C)I,2,4.338496407719209,1779.059,197.684,88.37,242.95,C8H17I,2-iodooctane,557-36-8,227.45,Yaw
CCCCCC(I)CC,2,4.338496407719209,1779.059,197.684,88.37,242.95,C8H17I,3-iodooctane,---,238.80259475007384,ML
CCCCC(I)CCC,2,4.338496407719209,1779.059,197.684,88.37,242.95,C8H17I,4-iodooctane,---,240.62959220215566,ML
CCCCCC(C)CI,2,4.523996407719209,1848.8412,196.294,92.37,241.51,C8H17I,1-iodo-2-methylheptane,---,233.3647023632801,ML
CCCCC(C)CCI,2,4.523996407719209,1848.8412,196.294,92.37,241.51,C8H17I,1-iodo-3-methylheptane,---,237.79447934923033,ML
CCCC(C)CCCI,2,4.523996407719209,1848.8412,196.294,92.37,241.51,C8H17I,1-iodo-4-methylheptane,---,238.12279676573976,ML
CCC(C)CCCCI,2,4.523996407719209,1848.8412,196.294,92.37,241.51,C8H17I,1-iodo-5-methylheptane,---,238.30804623334282,ML
CC(C)CCCCCI,2,4.523996407719209,1848.8412,196.294,92.37,241.51,C8H17I,1-iodo-6-methylheptane,---,238.04840928284065,ML
CCCCCC(C)(C)I,2,4.164576407719209,1713.5312,199.074,84.37,244.44,C8H17I,2-iodo-2-methylheptane,---,242.72218320703777,ML
CCCCC(C)C(C)I,2,4.164576407719209,1713.5312,199.074,84.37,244.44,C8H17I,2-iodo-3-methylheptane,---,238.09193293010523,ML
CCCC(C)CC(C)I,2,4.164576407719209,1713.5312,199.074,84.37,244.44,C8H17I,2-iodo-4-methylheptane,---,237.9515437443827,ML
CCC(C)CCC(C)I,2,4.164576407719209,1713.5312,199.074,84.37,244.44,C8H17I,2-iodo-5-methylheptane,---,238.86093399399536,ML
CC(C)CCCC(C)I,2,4.164576407719209,1713.5312,199.074,84.37,244.44,C8H17I,2-iodo-6-methylheptane,---,238.58359235744766,ML
CCCCC(I)C(C)C,2,4.164576407719209,1713.5312,199.074,84.37,244.44,C8H17I,3-iodo-2-methylheptane,---,239.26874928232283,ML
CCCCC(C)(I)CC,2,4.164576407719209,1713.5312,199.074,84.37,244.44,C8H17I,3-iodo-3-methylheptane,---,237.30957070452732,ML
CCCC(C)C(I)CC,2,4.164576407719209,1713.5312,199.074,84.37,244.44,C8H17I,3-iodo-4-methylheptane,---,237.11509396912996,ML
CCC(C)CC(I)CC,2,4.164576407719209,1713.5312,199.074,84.37,244.44,C8H17I,3-iodo-5-methylheptane,---,237.3694553009609,ML
CCC(I)CCC(C)C,2,4.164576407719209,1713.5312,199.074,84.37,244.44,C8H17I,3-iodo-6-methylheptane,---,237.18682801881883,ML
CC(C)CCC(C)(C)I,2,3.8474364077192087,1593.7375,201.854,76.37,247.54,C8H17I,"2-iodo-2,5-dimethylhexane",---,240.49034974487063,ML
CCCC(C)(I)C(C)C,2,3.8474364077192087,1593.7375,201.854,76.37,247.54,C8H17I,"3-iodo-2,3-dimethylhexane",---,236.10240795076194,ML
CCCCC(CC)CI,2,4.001196407719209,1651.8711,200.464,80.37,245.97,C8H17I,1-iodo-2-ethylhexane,1653-16-3,227.45,Yaw
CN(C)C1CCCCC1,"1,2",4.405206407719208,1628.068,211.028,47.97,185.66,C8H17N,cyclohexyldimethylamine,98-94-2,258.15,Yaw
CCNC1CCCCC1,"1,2",4.272286407719209,1600.0657,210.472,49.57,192.44,C8H17N,cyclohexylethylamine,5459-93-8,258.15,Yaw
CNC1CCC(C)CC1,2,5.727066407719208,2105.4517,201.576,75.17,186.45,C8H17N,"N,4-dimethylcyclohexylamine",90226-23-6,258.15,Yaw
CCC1CCCCC1N,2,4.452256407719209,1668.3546,208.665,54.77,193.23,C8H17N,2-ethylcyclohexanamine,6850-36-8,258.15,Yaw
CC(C)N1CCCCC1,2,3.996386407719209,1480.8985,214.503,37.47,186.24,C8H17N,1-isopropylpiperidine,766-79-0,272.15,Yaw
CCCN1CCCCC1,"1,2",4.210196407719208,1541.1306,213.947,39.07,180.29,C8H17N,1-propylpiperidine,5470-02-0,272.15,Yaw
CCCC1CCCCN1,2,4.673066407719209,1709.5617,209.777,51.07,181.24,C8H17N,"2-propylpiperidine, (S)",458-88-8,272.15,Yaw
CCCC1CCNCC1,2,5.133526407719209,1864.4557,207.136,58.67,178.68,C8H17N,4-propylpiperidine,22398-09-0,272.15,Yaw
CC1CCNC(C)(C)C1,2,3.944056407719208,1463.1519,214.92,36.27,186.71,C8H17N,"2,2,4-trimethylpiperidine",101257-71-0,272.15,Yaw
CC1CCC(C)C(C)N1,2,4.694066407719209,1715.7308,209.455,51.5,181.1,C8H17N,"2,3,6-trimethylpiperidine",50402-72-7,272.15,Yaw
CC1CC(C)NC(C)C1,2,3.8424864077192087,1428.6744,215.754,-1.0,187.66,C8H17N,"2,4,6-trimethylpiperidine",21974-48-1,272.15,Yaw
C[C@H](N)C1CCCCC1,2,4.3385964077192085,1629.1912,209.455,52.5,194.05,C8H17N,(S)-(+)-1-cyclohexylethylamine,17430-98-7,258.15,Yaw
CC1CCCC(N)C1C,"1,2",4.266676407719209,1582.5619,211.862,45.57,187.21,C8H17N,"2,3-dimethylcyclohexylamine",42195-92-6,258.15,Yaw
CC(N)C1CCCCC1,2,4.3385964077192085,1629.1912,209.455,52.5,194.05,C8H17N,R-(-)-cyclohexylethylamine,5913-13-3,258.15,Yaw
CC(C)C1CCNCC1,2,4.813456407719209,1756.8409,208.929,53.51,180.4,C8H17N,4-(1-methylethyl)piperidine,19678-58-1,272.15,Yaw
NCCC1CCCCC1,2,4.3385964077192085,1629.1912,209.455,52.5,194.05,C8H17N,cyclohexaneethylamine,4442-85-7,258.15,Yaw
CCC1CCC(C)NC1,2,4.694066407719209,1715.7308,209.455,51.5,181.1,C8H17N,5-ethyl-2-methylpiperidine,104-89-2,272.15,Yaw
CNCC1CCCCC1,2,4.3385964077192085,1629.1912,209.455,52.5,194.05,C8H17N,N-methyl-N-(cyclohexylmethyl) amine,25756-29-0,258.15,Yaw
CC1(C)CCC(C)(C)N1,3,4.993996407719209,1971.1966,198.657,88.07,221.37,C8H17N,"2,2,5,5-tetramethylpyrrolidine",4567-22-0,280.85199912182986,ML
CCCN(CCC)C(C)=O,2,5.125226407719209,2044.3143,197.823,93.97,225.94,C8H17NO,"N,N-dipropylacetamide",1116-24-1,261.95359084752386,ML
CC(=O)N(C(C)C)C(C)C,"1,2",4.744456407719209,1886.5223,201.576,83.17,222.99,C8H17NO,"N,N-diisopropylacetamide",759-22-8,308.6521895375563,ML
CCCCCCCC[N+](=O)[O-],"1,2",5.6012664077192085,2241.1705,191.568,107.97,231.27,C8H17NO2,1-nitrooctane,629-37-8,288.15,Yaw
CCCCCCCCO[N+](=O)[O-],2,3.7864864077192086,1582.2542,201.34,77.85,252.62,C8H17NO3,octyl nitrate,629-39-0,229.9131249862577,ML
CCCCCCCC,"1,2",4.264536407719208,1498.9589,225.874,18.04,152.32,C8H18,octane,111-65-9,216.37,Yaw
CCCCCC(C)C,"1,2",4.246276407719209,1473.8408,229.44,11.1,144.13,C8H18,2-methylheptane,592-27-8,164.16,Yaw
CCCCC(C)CC,"1,2",4.242116407719209,1477.4843,229.359,11.94,145.53,C8H18,3-methylheptane,589-81-1,152.6,Yaw
CCCC(C)CCC,"1,2",4.243356407719209,1473.5116,229.542,11.06,144.23,C8H18,4-methylheptane,589-53-7,152.2,Yaw
CCCCC(C)(C)C,"1,2",4.177706407719208,1411.4694,231.017,1.96,133.08,C8H18,"2,2-dimethylhexane",590-73-8,151.97,Yaw
CCCC(C)C(C)C,"1,2",4.161076407719209,1411.4295,223.588,10.02,142.06,C8H18,"2,3-dimethylhexane",584-94-1,181.69,Yaw
CCC(C)CC(C)C,"1,2",4.137276407719209,1378.8416,223.843,5.27,135.58,C8H18,"2,4-dimethylhexane",589-43-5,181.69,Yaw
CC(C)CCC(C)C,"1,2",4.1731964077192085,1400.906,226.581,4.82,135.21,C8H18,"2,5-dimethylhexane",592-13-2,182.0,Yaw
CCCC(C)(C)CC,"1,2",4.1802364077192085,1441.0648,232.763,5.0,138.72,C8H18,"3,3-dimethylhexane",563-16-6,147.05,Yaw
CCC(C)C(C)CC,"1,2",4.158356407719209,1420.6084,223.898,11.33,144.39,C8H18,"3,4-dimethylhexane",583-48-2,181.69,Yaw
CCC(C)C(C)(C)C,"1,2",4.141396407719209,1416.581,232.214,3.01,136.65,C8H18,"2,2,3-trimethylpentane",564-02-3,160.89,Yaw
CC(C)CC(C)(C)C,"1,2",4.109396407719209,1358.7529,231.405,-4.58,125.38,C8H18,"2,2,4-trimethylpentane",540-84-1,165.77,Yaw
CCC(C)(C)C(C)C,"1,2",4.151626407719209,1443.8642,233.013,6.34,141.96,C8H18,"2,3,3-trimethylpentane",560-21-4,172.22,Yaw
CC(C)C(C)C(C)C,"1,2",4.190496407719209,1452.8173,233.223,6.07,140.3,C8H18,"2,3,4-trimethylpentane",565-75-3,163.95,Yaw
CCCC(CC)CC,"1,2",4.174216407719209,1420.1155,221.671,12.86,144.98,C8H18,3-ethylhexane,619-99-8,181.69,Yaw
CCC(CC)C(C)C,"1,2",4.118076407719209,1385.9646,220.906,10.13,142.19,C8H18,3-ethyl-2-methylpentane,609-26-7,158.2,Yaw
CCC(C)(CC)CC,"1,2",4.1680364077192085,1456.8068,231.249,9.59,145.48,C8H18,3-methyl-3-ethylpentane,1067-08-9,182.28,Yaw
CCN1CCN(CC)CC1,3,2.881846407719209,1260.1439,212.418,8.75,275.86,C8H18N2,"1,4-diethylpiperazine",6483-50-7,295.03773519951693,ML
CCCCCCCCO,"1,2",4.293216407719209,1540.2132,163.905,85.56,221.9,C8H18O,1-octanol,111-87-5,257.65,Yaw
CCCCCCC(C)O,"1,2",4.110286407719209,1419.608,165.53,71.42,207.14,C8H18O,2-octanol,123-96-6,241.55,Yaw
CCCCCC[C@H](C)O,"1,2",5.128626407719208,1971.7427,206.608,74.69,201.82,C8H18O,(S)-(+)-2-octanol,6169-06-8,254.52514464853084,ML
CCCCCC(O)CC,2,5.333126407719208,2084.668,219.928,69.05,194.35,C8H18O,3-octanol,589-98-0,228.15,Yaw
CCCCC(O)CCC,2,5.041186407719208,1750.0127,176.181,76.64,193.01,C8H18O,4-octanol,589-62-8,232.45,Yaw
CCCCCC(C)CO,"1,2",5.491756407719208,2354.3721,253.71,65.63,199.86,C8H18O,2-methyl-1-heptanol,60435-70-3,161.15,Yaw
CCCCC(C)CCO,"1,2",5.386286407719208,2314.7536,243.95,74.58,211.24,C8H18O,3-methyl-1-heptanol,1070-32-2,183.15,Yaw
CCCC(C)CCCO,"1,2",5.396786407719208,2301.0311,243.671,72.51,207.89,C8H18O,4-methyl-1-heptanol,817-91-4,212.0,Yaw
CCC(C)CCCCO,"1,2",5.277756407719208,2077.12,211.061,79.1,206.31,C8H18O,5-methyl-1-heptanol,7212-53-5,169.15,Yaw
CC(C)CCCCCO,"1,2",4.827736407719208,1771.997,180.045,84.1,211.41,C8H18O,6-methyl-1-heptanol,1653-40-3,167.15,Yaw
CCCCCC(C)(C)O,"1,2",4.496566407719208,1514.4821,177.959,59.52,183.02,C8H18O,2-methyl-2-heptanol,625-25-2,222.75,Yaw
CCCCC(C)C(C)O,"1,2",5.580366407719209,2458.2998,274.376,55.1,191.27,C8H18O,3-methyl-2-heptanol,31367-46-1,159.15,Yaw
CCCC(C)CC(C)O,"1,2",5.026556407719209,1943.3557,214.918,66.43,196.33,C8H18O,4-methyl-2-heptanol,56298-90-9,171.15,Yaw
CCC(C)CCC(C)O,"1,2",5.266916407719208,2171.0159,240.298,63.44,196.89,C8H18O,5-methyl-2-heptanol,54630-50-1,153.15,Yaw
CC(C)CCCC(C)O,"1,2",4.879196407719209,1805.5776,198.206,68.89,196.18,C8H18O,6-methyl-2-heptanol,4730-22-7,168.15,Yaw
CCCCC(O)C(C)C,"1,2",5.374296407719209,1982.5045,209.037,64.22,181.74,C8H18O,2-methyl-3-heptanol,18720-62-2,188.15,Yaw
CCCCC(C)(O)CC,"1,2",4.158756407719209,1416.3462,170.719,63.79,196.43,C8H18O,3-methyl-3-heptanol,5582-82-1,190.15,Yaw
CCCC(C)C(O)CC,"1,2",5.747076407719209,2553.1278,289.248,45.46,179.56,C8H18O,4-methyl-3-heptanol,14979-39-6,150.15,Yaw
CCC(C)CC(O)CC,"1,2",5.152006407719208,1968.7416,228.731,51.21,177.11,C8H18O,5-methyl-3-heptanol,18720-65-5,181.95,Yaw
CCC(O)CCC(C)C,2,4.618726407719208,1767.0677,211.626,60.25,197.64,C8H18O,6-methyl-3-heptanol,18720-66-6,212.0,Yaw
CCCC(O)CC(C)C,"1,2",4.852146407719209,1765.5607,197.572,64.65,190.37,C8H18O,2-methyl-4-heptanol,21570-35-4,192.15,Yaw
CCCC(O)C(C)CC,"1,2",5.3034064077192085,2342.7485,271.744,54.35,196.58,C8H18O,3-methyl-4-heptanol,1838-73-9,212.0,Yaw
CCCC(C)(O)CCC,"1,2",4.647486407719208,1595.5725,182.27,62.14,184.83,C8H18O,4-methyl-4-heptanol,598-01-6,191.15,Yaw
CCCCC(CC)CO,"1,2",4.242986407719209,1478.1279,165.52,75.85,209.45,C8H18O,2-ethyl-1-hexanol,104-76-7,203.15,Yaw
CCCC(CC)CCO,2,5.606296407719208,2113.7312,206.066,76.25,192.36,C8H18O,3-ethyl-1-hexanol,41065-95-6,212.0,Yaw
CCC(CC)CCCO,2,5.606296407719208,2113.7312,206.066,76.25,192.36,C8H18O,4-ethyl-1-hexanol,---,212.0,Yaw
CCCCC(C)(C)CO,"1,2",4.386466407719209,1420.6021,151.36,75.31,196.36,C8H18O,"2,2-dimethyl-1-hexanol",2370-13-0,221.15,Yaw
CCCC(C)C(C)CO,2,5.276676407719208,1998.2575,207.734,71.45,193.87,C8H18O,"2,3-dimethyl-1-hexanol",---,212.0,Yaw
CCC(C)CC(C)CO,"1,2",5.473196407719209,2462.9402,273.0,61.91,203.19,C8H18O,"2,4-dimethyl-1-hexanol",3965-59-1,212.0,Yaw
CC(C)CCC(C)CO,2,5.992136407719208,2660.2821,273.0,64.9,194.45,C8H18O,"2,5-dimethyl-1-hexanol",6886-16-4,212.0,Yaw
CCCC(C)(C)CCO,2,5.664506407719209,2134.104,205.788,77.05,192.11,C8H18O,"3,3-dimethyl-1-hexanol",10524-70-6,212.0,Yaw
CCC(C)C(C)CCO,2,5.664506407719209,2134.104,205.788,77.05,192.11,C8H18O,"3,4-dimethyl-1-hexanol",---,212.0,Yaw
CC(C)CC(C)CCO,2,6.220556407719208,2761.6939,273.0,67.89,193.54,C8H18O,"3,5-dimethyl-1-hexanol",13501-73-0,212.0,Yaw
CCC(C)(C)CCCO,2,5.723726407719209,2154.8211,205.51,77.85,191.86,C8H18O,"4,4-dimethyl-1-hexanol",6481-95-4,212.0,Yaw
CC(C)C(C)CCCO,2,5.723726407719209,2154.8211,205.51,77.85,191.86,C8H18O,"4,5-dimethyl-1-hexanol",---,212.0,Yaw
CC(C)(C)CCCCO,2,5.723726407719209,2154.8211,205.51,77.85,191.86,C8H18O,"5,5-dimethyl-1-hexanol",2768-18-5,212.0,Yaw
CCCC(CC)C(C)O,"1,2",5.569966407719209,2456.3581,273.0,56.68,193.2,C8H18O,3-ethyl-2-hexanol,24448-19-9,212.0,Yaw
CCC(CC)CC(C)O,2,4.977396407719208,1893.2227,209.402,66.65,195.45,C8H18O,4-ethyl-2-hexanol,---,212.0,Yaw
CCCC(C)C(C)(C)O,"1,2",4.973066407719209,1617.0584,174.163,61.77,171.95,C8H18O,"2,3-dimethyl-2-hexanol",19550-03-9,212.0,Yaw
CCC(C)CC(C)(C)O,2,3.9151664077192088,1443.5252,197.739,51.32,201.67,C8H18O,"2,4-dimethyl-2-hexanol",42328-76-7,212.0,Yaw
CC(C)CCC(C)(C)O,"1,2",4.359966407719209,1386.1715,164.432,57.68,177.08,C8H18O,"2,5-dimethyl-2-hexanol",3730-60-7,212.0,Yaw
CCCC(C)(C)C(C)O,2,4.618726407719208,1767.0677,211.626,60.25,197.64,C8H18O,"3,3-dimethyl-2-hexanol",22025-20-3,212.0,Yaw
CCC(C)C(C)C(C)O,2,5.499486407719209,2441.566,273.0,57.82,196.67,C8H18O,"3,4-dimethyl-2-hexanol",19550-05-1,212.0,Yaw
CC(C)CC(C)C(C)O,"1,2",5.497606407719209,2380.4664,273.0,49.63,185.08,C8H18O,"3,5-dimethyl-2-hexanol",66576-27-0,212.0,Yaw
CCC(C)(C)CC(C)O,2,4.7044464077192085,1797.2491,211.07,61.85,197.08,C8H18O,"4,4-dimethyl-2-hexanol",---,212.0,Yaw
CC(O)CC(C)C(C)C,2,4.7044464077192085,1797.2491,211.07,61.85,197.08,C8H18O,"4,5-dimethyl-2-hexanol",---,212.0,Yaw
CC(O)CCC(C)(C)C,"1,2",5.425086407719208,2380.8005,273.0,52.87,191.63,C8H18O,"5,5-dimethyl-2-hexanol",31841-77-7,212.0,Yaw
CCCC(O)(CC)CC,"1,2",4.944826407719209,1881.1791,220.334,55.27,184.76,C8H18O,3-ethyl-3-hexanol,597-76-2,212.0,Yaw
CCC(O)C(CC)CC,"1,2",5.186046407719209,2022.9024,227.066,59.19,187.04,C8H18O,4-ethyl-3-hexanol,19780-44-0,212.0,Yaw
CCCC(O)C(C)(C)C,"1,2",6.213246407719209,2804.8652,304.583,41.95,169.84,C8H18O,"2,2-dimethyl-3-hexanol",4209-90-9,212.0,Yaw
CCCC(C)(O)C(C)C,2,4.543536407719208,1853.7354,237.032,51.52,199.91,C8H18O,"2,3-dimethyl-3-hexanol",4166-46-5,212.0,Yaw
CCC(C)C(O)C(C)C,"1,2",5.613686407719209,2537.8366,291.03,47.6,186.67,C8H18O,"2,4-dimethyl-3-hexanol",13432-25-2,212.0,Yaw
CC(C)CC(O)C(C)C,"1,2",4.895356407719208,1765.3973,202.777,57.75,181.48,C8H18O,"2,5-dimethyl-3-hexanol",19550-07-3,212.0,Yaw
CCC(C)C(C)(O)CC,"1,2",4.387836407719209,1604.3836,204.643,51.29,187.93,C8H18O,"3,4-dimethyl-3-hexanol",19550-08-4,212.0,Yaw
CCC(C)(O)CC(C)C,"1,2",5.355686407719208,2252.2443,268.183,43.05,177.39,C8H18O,"3,5-dimethyl-3-hexanol",4209-91-0,212.0,Yaw
CCC(O)C(C)(C)CC,"1,2",4.963406407719209,1904.5785,224.524,53.75,183.98,C8H18O,"4,4-dimethyl-3-hexanol",19550-09-5,212.0,Yaw
CCC(O)C(C)C(C)C,2,4.454496407719208,1709.1911,212.738,57.05,198.77,C8H18O,"4,5-dimethyl-3-hexanol",---,212.0,Yaw
CCC(O)CC(C)(C)C,2,4.195036407719209,1640.7221,220.149,49.89,201.2,C8H18O,"5,5-dimethyl-3-hexanol",66576-31-6,212.0,Yaw
CCCC(CO)CCC,"1,2",4.660676407719208,1642.1072,172.332,78.7,204.33,C8H18O,2-propyl-1-pentanol,58175-57-8,212.0,Yaw
CCCC(CO)C(C)C,2,7.0576764077192085,2620.2497,200.3,92.84,187.5,C8H18O,2-isopropyl-1-pentanol,---,212.0,Yaw
CCCC(C)(CC)CO,"1,2",4.849356407719209,1758.5857,188.143,73.16,198.5,C8H18O,2-methyl-2-ethyl-1-pentanol,5970-63-8,212.0,Yaw