smiles,code,A [log10(atm)],B [C],C [C],TMIN [C],TMAX [C],FORMULA,NAME,CAS No,mp [K],mp_type
CC(C)C(=O)C(C)(C)C,"1,2",4.559586407719209,1606.599,218.507,30.95,158.76,C8H16O,"2,2,4-trimethyl-3-pentanone",5857-36-3,244.13,Yaw
CCCC1(O)CCCC1,"1,2",3.1172864077192086,832.4444,93.492,73.06,202.09,C8H16O,1-propylcyclopentanol,1604-02-0,235.65,Yaw
CCC[C@H]1CCC[C@H]1O,2,4.180736407719209,1666.8835,211.031,63.96,218.61,C8H16O,cis-2-propylcyclopentanol,25172-42-3,272.9,Yaw
CCC[C@@H]1CCC[C@H]1O,2,4.180736407719209,1666.8835,211.031,63.96,218.61,C8H16O,trans-2-propylcyclopentanol,25172-43-4,272.9,Yaw
CC1(C)CCCC1(C)O,2,3.979086407719208,1593.1088,212.696,59.17,220.44,C8H16O,"1,2,2-trimethylcyclopentanol",1121-95-5,310.15,Yaw
CC1CC(C)C(C)(O)C1,2,4.044726407719208,1617.1405,212.14,60.77,219.82,C8H16O,"1,2,4-trimethylcyclopentanol",34103-97-4,272.9,Yaw
CC1CCC(C)C1(C)O,2,4.180736407719209,1666.8835,211.031,63.96,218.61,C8H16O,"1,2,5-trimethylcyclopentanol",33840-38-9,272.9,Yaw
CCC1(O)CCCCC1,"1,2",4.992456407719208,1876.9972,209.916,34.5,190.17,C8H16O,1-ethylcyclohexanol,1940-18-7,307.65,Yaw
CCC1CCCCC1O,2,3.990886407719208,1591.1894,211.031,59.96,220.2,C8H16O,2-ethylcyclohexanol,3760-20-1,292.83,Yaw
CCC1CCC(O)CC1,2,3.990886407719208,1591.1894,211.031,59.96,220.2,C8H16O,4-ethylcyclohexanol,4534-74-1,292.83,Yaw
CC1(C)CCCCC1O,2,4.532446407719209,1788.1986,206.858,71.97,215.74,C8H16O,"2,2-dimethylcyclohexanol",1193-46-0,281.15,Yaw
CC1CCC(O)C(C)C1,2,4.552426407719208,1795.4488,206.719,72.37,215.6,C8H16O,"2,4-dimethylcyclohexanol",69542-91-2,292.83,Yaw
CC1CCCC(C)C1O,2,4.492896407719209,1773.8438,207.136,71.17,216.03,C8H16O,"2,6-dimethylcyclohexanol",5337-72-4,305.65,Yaw
CC1(C)CCCC(O)C1,"1,2",5.094546407719209,1974.0572,204.634,78.37,207.18,C8H16O,"3,3-dimethylcyclohexanol",767-12-4,284.65,Yaw
CC1CCC(O)CC1C,"1,2",4.9888864077192085,1958.4985,203.522,81.57,214.26,C8H16O,"3,4-dimethylcyclohexanol",5715-23-1,292.83,Yaw
CC1CC(C)CC(O)C1,"1,2",5.060066407719209,1971.5454,204.078,79.97,210.2,C8H16O,"3,5-dimethylcyclohexanol",5441-52-1,284.75,Yaw
CC1(C)CCC(O)CC1,"1,2",4.989336407719208,1947.8678,204.356,79.17,211.12,C8H16O,"4,4-dimethylcyclohexanol",932-01-4,289.15,Yaw
CCC1(CC)CCCO1,2,3.991996407719209,1489.6171,215.476,38.17,188.11,C8H16O,"2,2-diethyltetrahydrofuran",1193-35-7,199.90619511100263,ML
CCCCCC=CCO,2,4.768816407719209,1923.8187,200.742,88.57,229.86,C8H16O,2-octen-1-ol,22104-78-5,255.65,Yaw
CCCCC/C=C\CO,2,4.768816407719209,1923.8187,200.742,88.57,229.86,C8H16O,cis-2-octen-1-ol,---,241.65,Yaw
CCCCC=CCCO,2,4.768816407719209,1923.8187,200.742,88.57,229.86,C8H16O,3-octen-1-ol,---,241.65,Yaw
CCCC=CCCCO,2,4.745586407719209,1914.4476,200.742,88.17,230.0,C8H16O,4-octen-1-ol,67700-26-9,241.65,Yaw
CCC/C=C/CCCO,2,4.768816407719209,1923.8187,200.742,88.57,229.86,C8H16O,trans-4-octen-1-ol,---,241.65,Yaw
CCC=CCCCCO,2,4.768816407719209,1923.8187,200.742,88.57,229.86,C8H16O,5-octen-1-ol,90200-83-2,241.65,Yaw
CC/C=C/CCCCO,2,4.768816407719209,1923.8187,200.742,88.57,229.86,C8H16O,trans-5-octen-1-ol,---,241.65,Yaw
CC=CCCCCCO,2,4.768816407719209,1923.8187,200.742,88.57,229.86,C8H16O,6-octen-1-ol,---,241.65,Yaw
C=CCCCCCCO,2,4.768816407719209,1923.8187,200.742,88.57,229.86,C8H16O,7-octen-1-ol,13175-44-5,241.65,Yaw
CCCCC=CC(C)O,2,4.375966407719209,1777.5028,203.522,80.57,232.68,C8H16O,1-methyl-2-hepten-1-ol,---,241.65,Yaw
CCCCC=C(C)CO,2,4.375966407719209,1777.5028,203.522,80.57,232.68,C8H16O,2-methyl-2-hepten-1-ol,---,241.65,Yaw
CCCCC(C)=CCO,2,4.375966407719209,1777.5028,203.522,80.57,232.68,C8H16O,3-methyl-2-hepten-1-ol,---,241.65,Yaw
CCCC(C)C=CCO,2,4.375966407719209,1777.5028,203.522,80.57,232.68,C8H16O,4-methyl-2-hepten-1-ol,---,241.65,Yaw
CCC(C)CC=CCO,2,4.375966407719209,1777.5028,203.522,80.57,232.68,C8H16O,5-methyl-2-hepten-1-ol,---,241.65,Yaw
CC(C)CCC=CCO,2,4.375966407719209,1777.5028,203.522,80.57,232.68,C8H16O,6-methyl-2-hepten-1-ol,---,241.65,Yaw
CCCC=CCC(C)O,2,4.375966407719209,1777.5028,203.522,80.57,232.68,C8H16O,1-methyl-3-hepten-1-ol,---,241.65,Yaw
CCCC=CC(C)CO,2,4.375966407719209,1777.5028,203.522,80.57,232.68,C8H16O,2-methyl-3-hepten-1-ol,---,241.65,Yaw
CCCC=C(C)CCO,2,4.375966407719209,1777.5028,203.522,80.57,232.68,C8H16O,3-methyl-3-hepten-1-ol,---,241.65,Yaw
CCCC(C)=CCCO,2,4.375966407719209,1777.5028,203.522,80.57,232.68,C8H16O,4-methyl-3-hepten-1-ol,---,241.65,Yaw
CCC(C)C=CCCO,2,4.375966407719209,1777.5028,203.522,80.57,232.68,C8H16O,5-methyl-3-hepten-1-ol,---,241.65,Yaw
CC(C)CC=CCCO,2,4.375966407719209,1777.5028,203.522,80.57,232.68,C8H16O,6-methyl-3-hepten-1-ol,---,241.65,Yaw
CCC=CCCC(C)O,2,4.375966407719209,1777.5028,203.522,80.57,232.68,C8H16O,1-methyl-4-hepten-1-ol,---,241.65,Yaw
CCC=CCC(C)CO,2,4.375966407719209,1777.5028,203.522,80.57,232.68,C8H16O,2-methyl-4-hepten-1-ol,---,241.65,Yaw
CCC=CC(C)CCO,2,4.375966407719209,1777.5028,203.522,80.57,232.68,C8H16O,3-methyl-4-hepten-1-ol,---,241.65,Yaw
CCC=C(C)CCCO,2,4.375966407719209,1777.5028,203.522,80.57,232.68,C8H16O,4-methyl-4-hepten-1-ol,---,241.65,Yaw
CCC(C)=CCCCO,2,4.375966407719209,1777.5028,203.522,80.57,232.68,C8H16O,5-methyl-4-hepten-1-ol,---,241.65,Yaw
CC(C)C=CCCCO,2,4.375966407719209,1777.5028,203.522,80.57,232.68,C8H16O,6-methyl-4-hepten-1-ol,---,241.65,Yaw
CC=CCCCC(C)O,2,4.375966407719209,1777.5028,203.522,80.57,232.68,C8H16O,1-methyl-5-hepten-1-ol,---,241.65,Yaw
CC=CCCC(C)CO,2,4.375966407719209,1777.5028,203.522,80.57,232.68,C8H16O,2-methyl-5-hepten-1-ol,---,241.65,Yaw
CC=CCC(C)CCO,2,4.375966407719209,1777.5028,203.522,80.57,232.68,C8H16O,3-methyl-5-hepten-1-ol,---,241.65,Yaw
CC=CC(C)CCCO,2,4.375966407719209,1777.5028,203.522,80.57,232.68,C8H16O,4-methyl-5-hepten-1-ol,---,241.65,Yaw
CC=C(C)CCCCO,2,4.375966407719209,1777.5028,203.522,80.57,232.68,C8H16O,5-methyl-5-hepten-1-ol,---,241.65,Yaw
CC(C)=CCCCCO,2,4.375966407719209,1777.5028,203.522,80.57,232.68,C8H16O,6-methyl-5-hepten-1-ol,---,241.65,Yaw
C=CCCCCC(C)O,2,4.375966407719209,1777.5028,203.522,80.57,232.68,C8H16O,1-methyl-6-hepten-1-ol,---,241.65,Yaw
C=CCCCC(C)CO,2,4.375966407719209,1777.5028,203.522,80.57,232.68,C8H16O,2-methyl-6-hepten-1-ol,---,241.65,Yaw
C=CCCC(C)CCO,2,4.375966407719209,1777.5028,203.522,80.57,232.68,C8H16O,3-methyl-6-hepten-1-ol,4048-32-2,241.65,Yaw
C=CCC(C)CCCO,2,4.375966407719209,1777.5028,203.522,80.57,232.68,C8H16O,4-methyl-6-hepten-1-ol,---,241.65,Yaw
C=CC(C)CCCCO,2,4.375966407719209,1777.5028,203.522,80.57,232.68,C8H16O,5-methyl-6-hepten-1-ol,---,241.65,Yaw
C=C(C)CCCCCO,2,4.375966407719209,1777.5028,203.522,80.57,232.68,C8H16O,6-methyl-6-hepten-1-ol,---,241.65,Yaw
CCCC=CC(C)(C)O,2,4.031426407719208,1648.7611,206.302,72.57,235.68,C8H16O,2-methyl-3-hepten-2-ol,116668-45-2,241.65,Yaw
CCC=CCC(C)(C)O,2,4.031426407719208,1648.7611,206.302,72.57,235.68,C8H16O,2-methyl-4-hepten-2-ol,116668-44-1,245.15,Yaw
C=CCCCC(C)(C)O,2,4.031426407719208,1648.7611,206.302,72.57,235.68,C8H16O,2-methyl-6-hepten-2-ol,77437-98-0,241.65,Yaw
CCC=CC(C)(O)CC,2,4.031426407719208,1648.7611,206.302,72.57,235.68,C8H16O,3-methyl-4-hepten-3-ol,4048-30-0,241.65,Yaw
C=CCC(C)(O)CCC,2,4.013306407719209,1641.3499,206.302,72.17,235.84,C8H16O,4-methyl-1-hepten-4-ol,1186-31-8,241.65,Yaw
CCC=C(C)C(O)CC,2,4.031426407719208,1648.7611,206.302,72.57,235.68,C8H16O,4-methyl-4-hepten-3-ol,81280-12-8,241.65,Yaw
CC=CC(O)C(C)CC,2,4.031426407719208,1648.7611,206.302,72.57,235.68,C8H16O,5-methyl-2-hepten-4-ol,4048-31-1,241.65,Yaw
CC=CC(O)CC(C)C,2,4.031426407719208,1648.7611,206.302,72.57,235.68,C8H16O,6-methyl-2-hepten-4-ol,4798-62-3,241.65,Yaw
CC(C)=CCCC(C)O,2,4.013306407719209,1641.3499,206.302,72.17,235.84,C8H16O,6-methyl-5-hepten-2-ol,1569-60-4,241.65,Yaw
C=CCC(O)CCCC,2,4.013306407719209,1641.3499,206.302,72.17,235.84,C8H16O,1-octen-4-ol,40575-42-6,241.65,Yaw
CC=CC(O)CCCC,2,4.013306407719209,1641.3499,206.302,72.17,235.84,C8H16O,2-octen-4-ol,4798-61-2,241.65,Yaw
CC=CC(O)C(C)(C)C,2,3.726806407719209,1534.5393,209.082,64.57,238.86,C8H16O,"2,2-dimethyl-4-hexen-3-ol",37674-67-2,241.65,Yaw
CC(C)=CC(O)C(C)C,2,3.710616407719209,1527.871,209.082,64.17,239.03,C8H16O,"2,5-dimethyl-4-hexen-3-ol",60703-31-3,241.65,Yaw
C=CC(C)(O)CC(C)C,2,3.710616407719209,1527.871,209.082,64.17,239.03,C8H16O,"3,5-dimethyl-1-hexen-3-ol",3329-48-4,241.65,Yaw
CCC(C)(O)C=C(C)C,2,3.726806407719209,1534.5393,209.082,64.57,238.86,C8H16O,"3,5-dimethyl-4-hexen-3-ol",1569-43-3,241.65,Yaw
C=C(C)CCCC(C)O,2,3.710616407719209,1527.871,209.082,64.17,239.03,C8H16O,6-methyl-6-hepten-2-ol,1335-09-7,241.65,Yaw
C=CC(O)CCCCC,2,3.908276407719209,1602.6316,207.387,69.45,236.89,C8H16O,1-octen-3-ol,3391-86-4,224.15,Yaw
C=COCCCCCC,"1,2",4.704416407719209,1692.9334,216.31,40.77,168.15,C8H16O,hexyl vinyl ether,5363-64-4,189.22976097373112,ML
CCCCCCCC(=O)O,"1,2",4.739446407719209,1889.4797,161.821,123.59,263.89,C8H16O2,octanoic acid,124-07-2,289.65,Yaw
CCCCCC(C)C(=O)O,2,4.815356407719209,2028.7541,192.402,110.57,257.0,C8H16O2,2-methylheptanoic acid,1188-02-9,247.60145107645292,ML
CCCCC(C)CC(=O)O,2,4.815356407719209,2028.7541,192.402,110.57,257.0,C8H16O2,3-methylheptanoic acid,---,252.90053056215845,ML
CCCC(C)CCC(=O)O,2,4.815356407719209,2028.7541,192.402,110.57,257.0,C8H16O2,4-methylheptanoic acid,3302-03-2,257.3581658643483,ML
CCC(C)CCCC(=O)O,2,4.815356407719209,2028.7541,192.402,110.57,257.0,C8H16O2,5-methylheptanoic acid,---,260.8103415904374,ML
CC(C)CCCCC(=O)O,2,4.815356407719209,2028.7541,192.402,110.57,257.0,C8H16O2,6-methylheptanoic acid,25103-52-0,260.43458226336725,ML
CCCCC(C)(C)C(=O)O,2,4.397106407719209,1865.9887,195.46,101.77,260.09,C8H16O2,"2,2-dimethylhexanoic acid",813-72-9,251.9,Yaw
CCCC(C)C(C)C(=O)O,2,4.432726407719208,1879.8702,195.182,102.57,259.81,C8H16O2,"2,3-dimethylhexanoic acid",---,251.02653880862553,ML
CCC(C)CC(C)C(=O)O,2,4.432726407719208,1879.8702,195.182,102.57,259.81,C8H16O2,"2,4-dimethylhexanoic acid",70621-82-8,255.42150412042596,ML
CC(C)CCC(C)C(=O)O,2,4.432726407719208,1879.8702,195.182,102.57,259.81,C8H16O2,"2,5-dimethylhexanoic acid",---,249.52005705222496,ML
CCCCC(CC)C(=O)O,"1,2",4.882216407719208,2012.7911,184.22,113.4,255.14,C8H16O2,2-ethylhexanoic acid,149-57-5,214.15,Yaw
CCCC(CC)CC(=O)O,2,4.774776407719209,2012.9865,192.68,109.77,257.27,C8H16O2,3-ethylhexanoic acid,41065-91-2,254.6777665642628,ML
CCC(CC)CCC(=O)O,2,4.774776407719209,2012.9865,192.68,109.77,257.27,C8H16O2,4-ethylhexanoic acid,6299-66-7,257.7047015298524,ML
CCCC(CCC)C(=O)O,"1,2",6.756806407719209,2736.8931,185.008,131.85,238.94,C8H16O2,2-propylpentanoic acid,99-66-1,251.9,Yaw
CCCCCCCOC=O,"1,2",4.692696407719208,1806.5873,206.858,67.97,204.51,C8H16O2,heptyl formate,112-23-2,226.75,Yaw
CCCCCC(C)OC=O,2,4.863826407719209,1811.6662,209.638,58.97,187.41,C8H16O2,1-methylhexyl formate,---,226.75,Yaw
CCCCC(C)COC=O,2,4.863826407719209,1811.6662,209.638,58.97,187.41,C8H16O2,2-methylhexyl formate,---,226.75,Yaw
CCCC(C)CCOC=O,2,4.863826407719209,1811.6662,209.638,58.97,187.41,C8H16O2,3-methylhexyl formate,---,226.75,Yaw
CCC(C)CCCOC=O,2,4.863826407719209,1811.6662,209.638,58.97,187.41,C8H16O2,4-methylhexyl formate,---,226.75,Yaw
CC(C)CCCCOC=O,2,4.863826407719209,1811.6662,209.638,58.97,187.41,C8H16O2,5-methylhexyl formate,---,226.75,Yaw
CCCCC(C)(C)OC=O,2,4.428246407719208,1661.7315,212.418,50.97,190.21,C8H16O2,"1,1-dimethylpentyl formate",---,226.75,Yaw
CCCC(C)C(C)OC=O,2,4.428246407719208,1661.7315,212.418,50.97,190.21,C8H16O2,"1,2-dimethylpentyl formate",---,226.75,Yaw
CCC(C)CC(C)OC=O,2,4.428246407719208,1661.7315,212.418,50.97,190.21,C8H16O2,"1,3-dimethylpentyl formate",---,226.75,Yaw
CC(C)CCC(C)OC=O,2,4.428246407719208,1661.7315,212.418,50.97,190.21,C8H16O2,"1,4-dimethylpentyl formate",---,226.75,Yaw
CCCCC(CC)OC=O,2,4.594776407719209,1719.1165,211.306,54.17,189.07,C8H16O2,1-ethylpentyl formate,---,226.75,Yaw
CCCC(CC)COC=O,2,4.594776407719209,1719.1165,211.306,54.17,189.07,C8H16O2,2-ethylpentyl formate,---,226.75,Yaw
CCC(CC)CCOC=O,2,4.594776407719209,1719.1165,211.306,54.17,189.07,C8H16O2,3-ethylpentyl formate,---,226.75,Yaw
CCCCCCOC(C)=O,"1,2",4.695206407719208,1775.9022,208.387,61.67,195.76,C8H16O2,hexyl acetate,142-92-7,192.25,Yaw
CCCCC(C)OC(C)=O,2,4.0684664077192085,1537.4695,215.059,43.37,193.03,C8H16O2,1-methylpentyl acetate,5953-49-1,192.25,Yaw
CCCC(C)COC(C)=O,2,4.627076407719208,1728.628,210.75,54.87,188.84,C8H16O2,2-methylpentyl acetate,7789-99-3,192.25,Yaw
CCC(C)CCOC(C)=O,2,4.594776407719209,1719.1165,211.306,54.17,189.07,C8H16O2,3-methylpentyl acetate,35897-13-3,192.25,Yaw
CC(=O)OCCCC(C)C,2,4.594776407719209,1719.1165,211.306,54.17,189.07,C8H16O2,4-methylpentyl acetate,---,192.25,Yaw
CCCC(C)(C)OC(C)=O,2,4.223226407719209,1589.4935,213.53,46.87,191.73,C8H16O2,"1,1-dimethylbutyl acetate",34859-98-8,192.25,Yaw
CCC(C)C(C)OC(C)=O,2,4.195566407719209,1581.4158,214.086,46.17,191.97,C8H16O2,"1,2-dimethylbutyl acetate",---,192.25,Yaw
CC(=O)OC(C)CC(C)C,"1,2",4.597906407719209,1667.5767,215.132,42.26,172.96,C8H16O2,"1,3-dimethylbutyl acetate",108-84-9,192.25,Yaw
CCCC(CC)OC(C)=O,2,4.3484964077192085,1634.2238,212.974,49.37,190.79,C8H16O2,1-ethylbutyl acetate,---,192.25,Yaw
CCC(CC)COC(C)=O,"1,2",4.781486407719209,1767.9028,210.889,54.47,183.69,C8H16O2,2-ethylbutyl acetate,10031-87-5,192.25,Yaw
CCC(OC(C)=O)C(C)C,2,4.0768664077192085,1538.9421,214.642,43.67,192.93,C8H16O2,2-methyl-3-pentyl acetate,35897-16-6,192.25,Yaw
CCC(C)(CC)OC(C)=O,2,4.041496407719209,1526.7142,214.92,42.87,193.24,C8H16O2,3-methyl-3-pentyl acetate,10250-47-2,192.25,Yaw
CCCCCOC(=O)CC,"1,2",4.556716407719208,1721.5363,209.152,58.27,195.37,C8H16O2,pentyl propanoate,624-54-4,203.05,Yaw
CCCC(C)OC(=O)CC,2,4.013666407719208,1515.3623,214.712,42.37,193.45,C8H16O2,1-methylbutyl propanoate,54004-43-2,203.05,Yaw
CCC(=O)OCC(C)CC,2,4.013666407719208,1515.3623,214.712,42.37,193.45,C8H16O2,2-methylbutyl propanoate,2438-20-2,203.05,Yaw
CCC(=O)OCCC(C)C,"1,2",4.515706407719208,1681.3538,211.584,51.27,187.34,C8H16O2,3-methylbutyl propanoate,105-68-0,203.05,Yaw
CCC(=O)OC(C)(C)CC,2,3.687306407719209,1402.3957,217.492,34.37,196.65,C8H16O2,"1,1-dimethylpropyl propanoate",34949-22-9,203.05,Yaw
CCC(=O)OC(C)C(C)C,2,3.687306407719209,1402.3957,217.492,34.37,196.65,C8H16O2,"1,2-dimethylpropyl propanoate",66576-70-3,203.05,Yaw
CCC(=O)OCC(C)(C)C,2,3.687306407719209,1402.3957,217.492,34.37,196.65,C8H16O2,"2,2-dimethylpropyl propanoate",3581-69-9,203.05,Yaw
CCC(=O)OC(CC)CC,2,3.812846407719209,1445.9032,216.38,37.57,195.35,C8H16O2,1-ethylpropyl propanoate,---,203.05,Yaw
CCCCOC(=O)CCC,"1,2",4.463546407719209,1678.4911,210.194,54.37,193.05,C8H16O2,butyl butanoate,109-21-7,181.15,Yaw
CCCC(=O)OC(C)CC,"1,2",4.508816407719209,1647.1077,213.808,43.97,177.63,C8H16O2,1-methylpropyl butanoate,819-97-6,185.08,Yaw
CCCC(=O)OCC(C)C,"1,2",4.497916407719209,1660.6149,212.446,47.89,183.23,C8H16O2,2-methylpropyl butanoate,539-90-2,185.08,Yaw
CCCC(=O)OC(C)(C)C,"1,2",4.464446407719208,1582.6755,218.256,31.17,161.88,C8H16O2,"1,1-dimethylethyl butanoate",2308-38-5,185.08,Yaw
CCCCOC(=O)C(C)C,2,4.240596407719209,1593.6752,212.974,47.37,191.56,C8H16O2,butyl isobutanoate,97-87-0,185.08,Yaw
CCC(C)OC(=O)C(C)C,2,3.788816407719208,1437.5823,216.588,36.97,195.59,C8H16O2,1-methylpropyl isobutanoate,23412-21-7,185.08,Yaw
CC(C)COC(=O)C(C)C,2,3.922736407719209,1482.3971,215.059,40.37,194.25,C8H16O2,2-methylpropyl isobutanoate,97-85-8,192.45,Yaw
CC(C)C(=O)OC(C)(C)C,2,3.344266407719209,1283.1324,220.842,24.73,200.79,C8H16O2,"1,1-dimethylethyl isobutanoate",---,185.08,Yaw
CCCCC(=O)OCCC,"1,2",4.497666407719208,1695.8421,209.499,56.37,194.6,C8H16O2,propyl pentanoate,141-06-0,202.45,Yaw
CCCCC(=O)OC(C)C,2,4.336976407719209,1626.8802,212.279,49.37,190.82,C8H16O2,isopropyl pentanoate,18362-97-5,209.8,Yaw
CCCOC(=O)CC(C)C,"1,2",4.520476407719209,1665.1498,212.557,47.57,182.08,C8H16O2,propyl isopentanoate,557-00-6,209.8,Yaw
CC(C)CC(=O)OC(C)C,2,3.744126407719208,1420.6261,216.588,35.97,196.01,C8H16O2,isopropyl isopentanoate,32665-23-9,209.8,Yaw
CCCOC(=O)C(C)CC,2,3.970516407719209,1500.4523,215.059,41.37,193.84,C8H16O2,propyl tert-pentanoate,---,209.8,Yaw
CCC(C)C(=O)OC(C)C,2,3.649346407719209,1389.2268,217.839,33.37,197.06,C8H16O2,isopropyl tert-pentanoate,---,209.8,Yaw
CCCCCC(=O)OCC,"1,2",4.457166407719209,1683.4213,209.638,55.97,195.41,C8H16O2,ethyl hexanoate,123-66-0,206.15,Yaw
CCOC(=O)CCC(C)C,2,4.5029164077192085,1682.2419,210.75,52.77,189.6,C8H16O2,ethyl 4-methylpentanoate,25415-67-2,206.15,Yaw
CCCCCCC(=O)OC,"1,2",4.583926407719209,1740.7108,207.692,61.57,198.74,C8H16O2,methyl heptanoate,106-73-0,217.15,Yaw
CCOCCOCCOC(C)=O,"1,2",5.2773164077192085,2530.2759,262.062,91.42,246.4,C8H16O4,diethylene glycol ethyl ether acetate,112-15-2,248.15,Yaw
C1CCCCSCCC1,3,3.885986407719209,1632.6641,197.2,85.91,258.22,C8H16S,thiacyclononane,6007-54-1,290.52661665936705,ML
CCCCCCCCBr,"1,2",4.688146407719208,1880.3766,200.242,86.01,228.37,C8H17Br,1-bromooctane,111-83-1,218.15,Yaw
CCCCCCC(C)Br,2,4.5487364077192085,1799.188,203.661,76.17,219.91,C8H17Br,2-bromooctane,---,218.15,Yaw
CCCCCC(Br)CC,2,4.5487364077192085,1799.188,203.661,76.17,219.91,C8H17Br,3-bromooctane,---,229.20976569397808,ML
CCCCC(CC)CBr,2,4.404656407719209,1746.7311,204.69,73.21,220.97,C8H17Br,1-bromo-2-ethylhexane,18908-66-2,218.15,Yaw
CCCCC(Br)CCC,2,4.5487364077192085,1799.188,203.661,76.17,219.91,C8H17Br,4-bromooctane,---,234.7182193860966,ML
CCCCCC(C)CBr,2,4.642066407719208,1833.1379,203.022,78.01,219.26,C8H17Br,1-bromo-2-methylheptane,---,226.85930526175378,ML
CCCCC(C)CCBr,2,4.642066407719208,1833.1379,203.022,78.01,219.26,C8H17Br,1-bromo-3-methylheptane,---,227.40008214628006,ML
CCCC(C)CCCBr,2,4.642066407719208,1833.1379,203.022,78.01,219.26,C8H17Br,1-bromo-4-methylheptane,---,227.09858166293301,ML
CCC(C)CCCCBr,2,4.642066407719208,1833.1379,203.022,78.01,219.26,C8H17Br,1-bromo-5-methylheptane,---,227.1415044632868,ML
CC(C)CCCCCBr,2,4.642066407719208,1833.1379,203.022,78.01,219.26,C8H17Br,1-bromo-6-methylheptane,---,226.7415954698757,ML
CCCCCC(C)(C)Br,2,4.256766407719208,1692.8185,205.802,70.01,222.14,C8H17Br,2-bromo-2-methylheptane,---,232.27821805764776,ML
CCCCC(C)C(C)Br,2,4.256766407719208,1692.8185,205.802,70.01,222.14,C8H17Br,2-bromo-3-methylheptane,---,226.19083871222145,ML
CCCC(C)CC(C)Br,2,4.256766407719208,1692.8185,205.802,70.01,222.14,C8H17Br,2-bromo-4-methylheptane,---,227.197059393547,ML
CCC(C)CCC(C)Br,2,4.256766407719208,1692.8185,205.802,70.01,222.14,C8H17Br,2-bromo-5-methylheptane,---,225.6198196172389,ML
CC(C)CCCC(C)Br,2,4.256766407719208,1692.8185,205.802,70.01,222.14,C8H17Br,2-bromo-6-methylheptane,---,226.05985036172515,ML
CCCCC(Br)C(C)C,2,4.256766407719208,1692.8185,205.802,70.01,222.14,C8H17Br,3-bromo-2-methylheptane,---,230.37393283227865,ML
CCCCC(C)(Br)CC,2,4.256766407719208,1692.8185,205.802,70.01,222.14,C8H17Br,3-bromo-3-methylheptane,---,228.0740815674087,ML
CCCC(C)C(Br)CC,2,4.256766407719208,1692.8185,205.802,70.01,222.14,C8H17Br,3-bromo-4-methylheptane,---,228.27509010324044,ML
CCC(C)CC(Br)CC,2,4.256766407719208,1692.8185,205.802,70.01,222.14,C8H17Br,3-bromo-5-methylheptane,---,227.74942414197244,ML
CCC(Br)CCC(C)C,2,4.256766407719208,1692.8185,205.802,70.01,222.14,C8H17Br,3-bromo-6-methylheptane,---,226.86376006251928,ML
CC(C)CCC(C)(C)Br,2,4.329726407719209,1719.4252,205.246,71.61,221.55,C8H17Br,"2-bromo-2,5-dimethylhexane",---,231.627219495634,ML
CCCC(C)(Br)C(C)C,2,4.329726407719209,1719.4252,205.246,71.61,221.55,C8H17Br,"3-bromo-2,3-dimethylhexane",---,232.90754331660165,ML
CCCCCCCCCl,2,4.958956407719208,1902.8618,205.06,73.15,203.46,C8H17Cl,1-chlorooctane,111-85-3,215.35,Yaw
CCCCCCC(C)Cl,"1,2",4.743736407719209,1803.3248,208.248,63.97,197.66,C8H17Cl,2-chlorooctane,628-61-5,231.25,Yaw
CCCCCC[C@H](C)Cl,2,4.411136407719209,1706.6559,208.234,63.01,207.0,C8H17Cl,(S)-2-chlorooctane,16844-08-9,231.25,Yaw
CCCCCC(Cl)CC,2,4.409186407719209,1705.9629,208.248,62.97,207.01,C8H17Cl,3-chlorooctane,---,231.25,Yaw
CCCCC(Cl)CCC,2,4.409186407719209,1705.9629,208.248,62.97,207.01,C8H17Cl,4-chlorooctane,---,231.25,Yaw
CCCCCC(C)CCl,2,4.448436407719209,1719.9111,207.97,63.77,206.73,C8H17Cl,1-chloro-2-methylheptane,---,231.25,Yaw
CCCCC(C)CCCl,2,4.448436407719209,1719.9111,207.97,63.77,206.73,C8H17Cl,1-chloro-3-methylheptane,---,231.25,Yaw