smiles,code,A [log10(atm)],B [C],C [C],TMIN [C],TMAX [C],FORMULA,NAME,CAS No,mp [K],mp_type
O=C1CCCC1,"1,2",4.685036407719209,1727.8581,238.153,25.0,155.97,C5H8O,cyclopentanone,120-92-3,221.85,Yaw
C=C(C)C(C)=O,"1,2",4.246656407719208,1390.6121,229.46,-2.51,122.98,C5H8O,methyl isopropenyl ketone,814-78-8,219.55,Yaw
C=CCOC=C,"1,2",5.580836407719209,1841.3328,263.939,-17.17,84.81,C5H8O,allyl vinyl ether,3917-15-5,182.39861309321387,ML
C1=COCCC1,"1,2",4.494926407719209,1573.356,264.03,-22.0,111.12,C5H8O,"3,4-dihydro-2H-pyran",110-87-2,182.82904039036987,ML
CCC=CC=O,"1,2",4.471476407719209,1544.6383,221.592,21.57,148.78,C5H8O,2-pentenal,764-39-6,172.0,Yaw
CC=CCC=O,2,4.207556407719209,1401.0095,228.542,1.57,130.09,C5H8O,3-pentenal,5604-55-7,172.0,Yaw
C=CCCC=O,2,4.207556407719209,1401.0095,228.542,1.57,130.09,C5H8O,4-pentenal,2100-17-6,183.2,Yaw
CC=C(C)C=O,2,5.1209464077192095,1678.8075,223.399,16.37,124.91,C5H8O,2-methyl-2-butenal,1115-11-3,172.0,Yaw
CC(C)=CC=O,"1,2",4.471296407719208,1577.7511,218.812,29.57,159.52,C5H8O,3-methyl-2-butenal,107-86-8,172.0,Yaw
C=CC(C)C=O,2,5.1209464077192095,1678.8075,223.399,16.37,124.91,C5H8O,2-methyl-3-butenal,---,172.0,Yaw
C=C(C)CC=O,2,5.1209464077192095,1678.8075,223.399,16.37,124.91,C5H8O,3-methyl-3-butenal,---,172.0,Yaw
C=C(C=O)CC,"1,2",4.433526407719208,1431.5831,230.349,-3.63,116.07,C5H8O,2-ethylacrolein,922-63-4,172.0,Yaw
CCC#CCO,3,5.151246407719208,1781.8398,221.472,32.0,146.0,C5H8O,2-pentyn-1-ol,6261-22-9,223.45,Yaw
CC#CCCO,"1,2",5.136066407719209,1891.2394,212.877,57.0,178.0,C5H8O,3-pentyn-1-ol,10229-10-4,249.05,Yaw
C#CCCCO,"1,2",5.136766407719209,1885.9313,213.294,55.0,177.0,C5H8O,4-pentyn-1-ol,5390-04-5,249.05,Yaw
CC#CC(C)O,3,5.151246407719208,1781.8398,221.472,32.0,146.0,C5H8O,3-pentyn-2-ol,---,249.05,Yaw
C#CCC(C)O,3,5.151246407719208,1781.8398,221.472,32.0,146.0,C5H8O,4-pentyn-2-ol,---,249.05,Yaw
C#CC(O)CC,"1,2",5.151556407719209,1779.7804,221.634,31.0,145.0,C5H8O,1-pentyn-3-ol,4187-86-4,249.05,Yaw
C#CC(C)(C)O,"1,2",5.162536407719209,1709.0264,227.194,15.0,124.0,C5H8O,2-methyl-3-butyn-2-ol,115-19-5,276.16,Yaw
C=CC(O)C=C,"1,2",4.928166407719209,1673.1388,223.955,21.77,137.64,C5H8O,"1,4-pentadien-3-ol",922-65-6,275.76973310138294,ML
C/C=C/C(C)=O,2,4.937756407719209,1637.2642,222.148,17.97,130.96,C5H8O,trans-3-penten-2-one,3102-33-8,218.6,Yaw
C=CC(=O)CC,2,4.059206407719208,1367.3953,227.43,2.77,136.41,C5H8O,1-penten-3-one,1629-58-9,191.8719850072201,ML
CC=CC(C)=O,"1,2",4.339686407719209,1495.2797,222.009,18.37,148.23,C5H8O,3-penten-2-one,625-33-2,202.06757434392048,ML
O=C1CCSCC1,3,5.477726407719208,2522.0124,273.15,69.58,214.04,C5H8OS,tetrahydrothiopyran-4-one,1072-72-6,334.15,Yaw
CCC=CC(=O)O,2,5.058226407719209,1997.2945,200.464,87.37,219.38,C5H8O2,2-pentenoic acid,626-98-2,283.15,Yaw
CC=CCC(=O)O,2,4.745706407719209,1883.1256,202.41,81.77,221.27,C5H8O2,3-pentenoic acid,5204-64-8,293.59,Yaw
C=CCCC(=O)O,2,3.919996407719209,1373.5723,156.005,80.78,223.54,C5H8O2,4-pentenoic acid,591-80-0,250.65,Yaw
CC=C(C)C(=O)O,2,3.5096464077192087,1139.9656,130.413,81.07,224.87,C5H8O2,cis-2-methyl-2-butenoic acid,565-63-9,318.15,Yaw
CC(C)=CC(=O)O,"1,2",3.862466407719209,1253.9111,130.09,70.0,221.99,C5H8O2,3-methyl-2-butenoic acid,541-47-9,339.15,Yaw
C=CC(C)C(=O)O,2,4.131026407719209,1657.7649,206.9,68.85,225.94,C5H8O2,2-methyl-3-butenoic acid,53774-20-2,293.59,Yaw
C=C(C)CC(=O)O,2,4.131026407719209,1657.7649,206.9,68.85,225.94,C5H8O2,3-methyl-3-butenoic acid,1617-31-8,294.15,Yaw
C=C(CC)C(=O)O,2,3.4630864077192083,1166.0361,142.308,75.89,226.45,C5H8O2,2-methylenebutanoic acid,3586-58-1,257.15,Yaw
CC(=O)CC(C)=O,"1,2",3.974296407719208,1313.8808,192.744,31.65,164.94,C5H8O2,acetylacetone,123-54-6,249.95,Yaw
C=CCOC(C)=O,"1,2",4.5971364077192085,1614.4751,247.641,1.58,128.16,C5H8O2,allyl acetate,591-87-7,138.0,Yaw
C=C(C)OC(C)=O,"1,2",4.689406407719209,1519.0494,229.932,1.27,116.22,C5H8O2,isopropenyl acetate,108-22-5,180.25,Yaw
C=COC(=O)CC,2,3.6442864077192088,975.1573,170.035,6.46,121.64,C5H8O2,vinyl propanoate,105-38-4,192.05,Yaw
C/C=C\C(=O)OC,2,5.947206407719209,1907.925,223.26,20.47,114.65,C5H8O2,methyl cis-2-butenoate,4358-59-2,194.73,Yaw
CC=CC(=O)OC,"1,2",4.796806407719209,1637.9949,222.426,22.87,141.91,C5H8O2,methyl trans-2-butenoate,623-43-8,231.15,Yaw
C=CC(=O)OCC,"1,2",4.365776407719209,1425.3599,226.634,1.55,124.03,C5H8O2,ethyl acrylate,140-88-5,201.95,Yaw
C=C(C)C(=O)OC,"1,2",4.076296407719209,1253.9692,207.274,3.23,124.88,C5H8O2,methyl methacrylate,80-62-6,224.95,Yaw
C=CCC(=O)OC,2,5.526626407719208,1782.2164,224.928,15.67,116.13,C5H8O2,methyl 3-butenoate,3724-55-8,194.73,Yaw
CCC(=O)C(C)=O,"1,2",4.317896407719209,1455.5209,226.04,8.77,136.31,C5H8O2,"2,3-pentanedione",600-14-6,221.15,Yaw
O=C1CCCCO1,3,13.62019640771921,4690.342,216.816,85.77,135.33,C5H8O2,tetrahydro-2H-pyran-2-one,542-28-9,260.65,Yaw
C=CC(=O)OCCO,3,10.646256407719209,4075.3747,225.655,99.67,168.28,C5H8O3,2-hydroxyethyl acrylate,818-61-1,213.0,Yaw
COC(=O)CC(C)=O,"1,2",4.747746407719209,1839.8336,218.017,59.54,195.73,C5H8O3,methyl acetoacetate,105-45-3,193.15,Yaw
O=C(O)CCCC(=O)O,"1,2",6.113126407719209,2759.2964,148.479,196.7,326.27,C5H8O4,glutaric acid,110-94-1,370.65,Yaw
COC(=O)CC(=O)OC,"1,2",5.356336407719208,2256.0591,239.745,71.99,206.53,C5H8O4,dimethyl malonate,108-59-8,211.25,Yaw
CCCC=CBr,2,4.711136407719208,1589.0045,222.982,18.07,137.33,C5H9Br,1-bromo-1-pentene,60468-23-7,166.45,Yaw
CCC/C=C\Br,2,4.022266407719209,1182.7806,179.754,20.61,138.09,C5H9Br,cis-1-bromo-1-pentene,31849-75-9,166.45,Yaw
CCC/C=C/Br,"1,2",3.875606407719209,1153.3956,179.754,20.61,142.91,C5H9Br,trans-1-bromo-1-pentene,31849-76-0,166.45,Yaw
C=C(Br)CCC,2,3.710866407719209,1097.3029,181.395,14.84,140.41,C5H9Br,2-bromo-1-pentene,31844-95-8,166.45,Yaw
C=CC(Br)CC,2,3.779506407719208,1114.781,180.649,16.3,139.83,C5H9Br,3-bromo-1-pentene,53045-71-9,166.45,Yaw
C=CCC(C)Br,"1,2",3.931836407719208,1147.5514,180.361,17.06,135.7,C5H9Br,4-bromo-1-pentene,31950-56-8,166.45,Yaw
C=CCCCBr,"1,2",4.0650664077192085,1231.7619,176.462,30.7,150.78,C5H9Br,5-bromo-1-pentene,1119-51-3,166.45,Yaw
CCC=CCBr,"1,2",4.7251164077192085,1624.4071,221.731,24.17,145.44,C5H9Br,1-bromo-2-pentene,20599-27-3,166.45,Yaw
CC/C=C\CBr,2,4.385896407719208,1279.6624,177.463,26.74,135.81,C5H9Br,1-bromo-cis-2-pentene,7348-78-9,166.45,Yaw
CC/C=C/CBr,2,4.385896407719208,1279.6624,177.463,26.74,135.81,C5H9Br,1-bromo-trans-2-pentene,7348-71-2,166.45,Yaw
CCC=C(C)Br,2,4.450806407719209,1512.3343,225.484,13.37,138.95,C5H9Br,2-bromo-2-pentene,80204-19-9,166.45,Yaw
CC=C(Br)CC,2,4.734306407719209,1600.7691,223.816,18.17,137.26,C5H9Br,3-bromo-2-pentene,21964-23-8,166.45,Yaw
CC=CC(C)Br,2,4.835206407719209,1632.1968,223.26,19.77,136.72,C5H9Br,4-bromo-2-pentene,1809-26-3,166.45,Yaw
C/C=C\C(C)Br,2,4.0271064077192085,1178.5333,178.345,21.14,137.95,C5H9Br,4-bromo-cis-2-pentene,56535-63-8,166.45,Yaw
C/C=C/C(C)Br,2,4.0271064077192085,1178.5333,178.345,21.14,137.95,C5H9Br,4-bromo-trans-2-pentene,23068-95-3,166.45,Yaw
CC=CCCBr,2,4.759216407719209,1608.5297,223.677,18.57,137.13,C5H9Br,5-bromo-2-pentene,51952-42-2,166.45,Yaw
C/C=C\CCBr,2,4.484896407719209,1305.9781,176.89,28.27,135.26,C5H9Br,5-bromo-cis-2-pentene,50273-84-2,166.45,Yaw
C/C=C/CCBr,2,4.484896407719209,1305.9781,176.89,28.27,135.26,C5H9Br,5-bromo-trans-2-pentene,7515-62-0,166.45,Yaw
C=C(C)C(C)Br,2,4.784336407719208,1616.354,223.538,18.97,136.99,C5H9Br,3-bromo-2-methyl-1-butene,51872-48-1,166.45,Yaw
C=C(C)CCBr,2,4.784336407719208,1616.354,223.538,18.97,136.99,C5H9Br,4-bromo-2-methyl-1-butene,20038-12-4,166.45,Yaw
CC(C)/C=C\Br,2,3.764086407719208,1108.6287,180.223,16.17,139.91,C5H9Br,cis-1-bromo-3-methyl-1-butene,16416-44-7,166.45,Yaw
CC(C)/C=C/Br,2,3.764086407719208,1108.6287,180.223,16.17,139.91,C5H9Br,trans-1-bromo-3-methyl-1-butene,16416-41-4,166.45,Yaw
C=C(Br)C(C)C,2,3.414156407719209,1013.1793,182.453,8.89,143.0,C5H9Br,2-bromo-3-methyl-1-butene,31844-96-9,166.45,Yaw
C=CC(C)(C)Br,2,4.0727364077192085,1394.0622,227.986,6.17,141.62,C5H9Br,3-bromo-3-methyl-1-butene,865-58-7,166.45,Yaw
C=CC(C)CBr,2,4.0727364077192085,1394.0622,227.986,6.17,141.62,C5H9Br,4-bromo-3-methyl-1-butene,31950-55-7,166.45,Yaw
CC(C)=CCBr,2,4.835206407719209,1632.1968,223.26,19.77,136.72,C5H9Br,1-bromo-3-methyl-2-butene,870-63-3,166.45,Yaw
CC(C)=C(C)Br,"1,2",3.872746407719209,1145.4077,177.261,21.82,143.43,C5H9Br,2-bromo-3-methyl-2-butene,3017-70-7,166.45,Yaw
C=C(CC)CBr,2,4.835206407719209,1632.1968,223.26,19.77,136.72,C5H9Br,3-bromo-2-ethyl-1-propene,---,166.45,Yaw
CCCCC(Br)(Br)Br,2,4.437996407719209,1889.2882,192.124,106.87,264.56,C5H9Br3,"1,1,1-tribromopentane",16644-66-9,272.397482251461,ML
CCCC=CCl,2,4.038876407719209,1349.2637,230.238,-2.31,130.74,C5H9Cl,1-chloro-1-pentene,21450-13-5,166.12735934871597,ML
CCC/C=C\Cl,2,3.869836407719209,1297.5275,231.461,-5.83,132.11,C5H9Cl,cis-1-chloro-1-pentene,66213-69-2,161.79701191401958,ML
CCC/C=C/Cl,2,3.869836407719209,1297.5275,231.461,-5.83,132.11,C5H9Cl,trans-1-chloro-1-pentene,66213-70-5,162.76678807975205,ML
C=C(Cl)CCC,2,3.851316407719208,1291.8517,231.6,-6.23,132.27,C5H9Cl,2-chloro-1-pentene,42131-85-1,162.3128075805644,ML
C=CC(Cl)CC,2,4.042846407719209,1350.4783,230.21,-2.23,130.7,C5H9Cl,3-chloro-1-pentene,24356-00-1,181.87261862138425,ML
C=CCC(C)Cl,2,4.206796407719208,1400.5671,229.098,0.97,129.49,C5H9Cl,4-chloro-1-pentene,10524-08-0,164.57844331042494,ML
C=CCCCCl,"1,2",4.4267864077192085,1470.9349,227.43,5.77,129.09,C5H9Cl,5-chloro-1-pentene,928-50-7,167.258547783147,ML
CCC=CCCl,2,4.715186407719209,1555.4053,226.04,9.77,126.33,C5H9Cl,1-chloro-2-pentene,10071-60-0,181.04609546905013,ML
CC/C=C\CCl,2,4.766166407719209,1570.8954,225.762,10.57,126.05,C5H9Cl,1-chloro-cis-2-pentene,6261-19-4,174.113903230717,ML
CC/C=C/CCl,2,4.818016407719209,1586.6476,225.484,11.37,125.78,C5H9Cl,1-chloro-trans-2-pentene,6261-25-2,178.1939669319503,ML
CCC=C(C)Cl,2,4.164866407719209,1387.7629,229.376,0.17,129.79,C5H9Cl,2-chloro-2-pentene,67747-70-0,173.3022762131152,ML
CC=C(Cl)CC,2,3.964526407719209,1326.5201,230.766,-3.83,131.32,C5H9Cl,3-chloro-2-pentene,34238-52-3,173.8954657481994,ML
CC=CC(C)Cl,2,4.472796407719208,1481.6627,227.43,5.77,127.73,C5H9Cl,4-chloro-2-pentene,1458-99-7,190.5920607570154,ML
C/C=C\C(C)Cl,2,4.206796407719208,1400.5671,229.098,0.97,129.49,C5H9Cl,4-chloro-cis-2-pentene,26423-63-2,178.74357678116598,ML
C/C=C/C(C)Cl,2,4.206796407719208,1400.5671,229.098,0.97,129.49,C5H9Cl,4-chloro-trans-2-pentene,18610-33-8,181.02050318502597,ML
CC=CCCCl,2,4.715186407719209,1555.4053,226.04,9.77,126.33,C5H9Cl,5-chloro-2-pentene,16435-50-0,165.4758220867032,ML
CC(C)C=CCl,2,3.814666407719209,1280.6193,231.878,-7.03,132.59,C5H9Cl,1-chloro-3-methyl-1-butene,23010-00-6,169.43691580162704,ML
CC(C)/C=C\Cl,2,4.042846407719209,1350.4783,230.21,-2.23,130.7,C5H9Cl,cis-1-chloro-3-methyl-1-butene,66213-67-0,164.66834051768072,ML
CC(C)/C=C/Cl,2,4.042846407719209,1350.4783,230.21,-2.23,130.7,C5H9Cl,trans-1-chloro-3-methyl-1-butene,66213-68-1,168.01669411275302,ML
C=C(C)C(C)Cl,2,4.074846407719209,1360.2594,229.988,-1.59,130.46,C5H9Cl,3-chloro-2-methyl-1-butene,5166-35-8,187.73639125525565,ML
C=C(C)CCCl,2,4.426666407719209,1467.6137,227.708,4.97,128.02,C5H9Cl,4-chloro-2-methyl-1-butene,10523-96-3,178.77599702871188,ML
C=C(Cl)C(C)C,2,3.926236407719209,1314.7985,231.044,-4.63,131.64,C5H9Cl,2-chloro-3-methyl-1-butene,17773-64-7,167.4323218676458,ML
C=CC(C)(C)Cl,2,3.5722264077192083,1206.182,233.824,-12.63,134.9,C5H9Cl,3-chloro-3-methyl-1-butene,2190-48-9,183.24561953060734,ML
C=CC(C)CCl,2,4.003396407719209,1338.4121,230.488,-3.03,131.01,C5H9Cl,4-chloro-3-methyl-1-butene,10524-01-3,173.98684317007613,ML
CC(C)=CCCl,"1,2",4.560596407719209,1525.675,225.484,11.37,132.69,C5H9Cl,1-chloro-3-methyl-2-butene,503-60-6,185.8559023712022,ML
CC(C)=C(C)Cl,2,4.082906407719209,1362.7228,229.932,-1.43,130.4,C5H9Cl,2-chloro-3-methyl-2-butene,17773-65-8,181.64539609842723,ML
CCC(C)=CCl,2,4.185746407719209,1394.1408,229.237,0.57,129.64,C5H9Cl,1-chloro-2-methyl-1-butene,23378-11-2,167.96134365196517,ML
CC=C(C)CCl,2,4.818016407719209,1586.6476,225.484,11.37,125.78,C5H9Cl,1-chloro-2-methyl-2-butene,13417-43-1,185.6637881842195,ML
ClC1CCCC1,3,6.568776407719209,1852.0649,198.119,21.07,97.37,C5H9Cl,chlorocyclopentane,930-28-9,180.0,Yaw
CCCCC(=O)Cl,3,5.237226407719209,2145.3333,260.59,33.85,174.02,C5H9ClO,pentanoyl chloride,638-29-9,163.15,Yaw
CCOC(=O)C(C)Cl,3,3.992976407719208,1737.7765,254.092,1.4,216.6,C5H9ClO2,ethyl 2-chloropropanoate,535-13-7,243.46932690639255,ML
CC(C)OC(=O)CCl,3,4.484306407719209,2117.199,291.019,-2.0,215.09,C5H9ClO2,isopropyl chloroacetate,105-48-6,258.21540663257406,ML
C=CCSCCCl,3,6.002646407719208,2619.9,273.15,59.18,186.35,C5H9ClS,allyl 2-chloroethylsulfide,19155-35-2,224.7737466658019,ML
CCCCC(Cl)(Cl)Cl,2,3.896686407719209,1507.2809,212.418,18.0,206.78,C5H9Cl3,"1,1,1-trichloropentane",3922-27-8,291.15,Yaw
CC(Cl)C(C)(Cl)CCl,2,4.957586407719209,1880.4379,204.912,70.07,198.91,C5H9Cl3,"1,2,3-trichloro-2-methylbutane",62521-69-1,291.15,Yaw
CC(C)(Cl)C(C)(Cl)Cl,2,4.887246407719209,1855.7982,205.329,68.87,199.32,C5H9Cl3,"2,2,3-trichloro-3-methylbutane",98070-91-8,291.15,Yaw
CC(CCl)(CCl)CCl,2,4.684256407719209,1789.1336,207.553,64.97,200.62,C5H9Cl3,"1,3-dichloro-2-(chloromethyl)-2-methylpropane",1067-09-0,291.15,Yaw
OCC(CCl)(CCl)CCl,3,2.3506964077192087,757.6514,47.92,130.85,321.73,C5H9Cl3O,"3-chloro-2,2-bis(chloromethyl)-1-propanol",813-99-0,349.94839477715,ML
CCCC=CF,2,4.618996407719209,1396.1488,238.828,-24.03,84.51,C5H9F,1-fluoro-1-pentene,---,144.47343637443927,ML
CCC/C=C\F,2,4.618996407719209,1396.1488,238.828,-24.03,84.51,C5H9F,cis-1-fluoro-1-pentene,66213-83-0,140.0398151325799,ML
CCC/C=C/F,2,4.618996407719209,1396.1488,238.828,-24.03,84.51,C5H9F,trans-1-fluoro-1-pentene,66213-84-1,143.62667114403362,ML
C=C(F)CCC,2,4.618996407719209,1396.1488,238.828,-24.03,84.51,C5H9F,2-fluoro-1-pentene,66213-89-6,143.71493297080477,ML
C=CC(F)CC,2,4.618996407719209,1396.1488,238.828,-24.03,84.51,C5H9F,3-fluoro-1-pentene,66702-88-3,145.4431845177977,ML
C=CCC(C)F,2,4.618996407719209,1396.1488,238.828,-24.03,84.51,C5H9F,4-fluoro-1-pentene,66702-91-8,141.55178895654737,ML
C=CCCCF,2,4.656366407719209,1407.4446,238.828,-23.53,84.33,C5H9F,5-fluoro-1-pentene,407-79-4,144.48560253392117,ML
CC/C=C\CF,2,4.618996407719209,1396.1488,238.828,-24.03,84.51,C5H9F,1-fluoro-cis-2-pentene,66213-85-2,137.69048044225053,ML
CC/C=C/CF,2,4.618996407719209,1396.1488,238.828,-24.03,84.51,C5H9F,1-fluoro-trans-2-pentene,66213-86-3,148.780008075618,ML
C/C=C\C(C)F,2,4.618996407719209,1396.1488,238.828,-24.03,84.51,C5H9F,4-fluoro-cis-2-pentene,66702-89-4,141.49406913351268,ML
C/C=C/C(C)F,2,4.618996407719209,1396.1488,238.828,-24.03,84.51,C5H9F,4-fluoro-trans-2-pentene,66702-90-7,146.12117257626335,ML
C/C=C\CCF,2,4.618996407719209,1396.1488,238.828,-24.03,84.51,C5H9F,5-fluoro-cis-2-pentene,66702-92-9,141.83902228628986,ML
C/C=C/CCF,2,4.618996407719209,1396.1488,238.828,-24.03,84.51,C5H9F,5-fluoro-trans-2-pentene,66702-93-0,145.6642270713266,ML
C=C(C)C(C)F,2,4.363326407719208,1324.9333,240.218,-28.03,85.94,C5H9F,3-fluoro-2-methyl-1-butene,53731-24-1,144.3273127910407,ML
C=C(C)CCF,2,4.363326407719208,1324.9333,240.218,-28.03,85.94,C5H9F,4-fluoro-2-methyl-1-butene,66213-81-8,146.70692501970282,ML
CC(C)/C=C\F,2,4.363326407719208,1324.9333,240.218,-28.03,85.94,C5H9F,cis-1-fluoro-3-methyl-1-butene,66213-73-8,136.40122894640675,ML
CC(C)/C=C/F,2,4.363326407719208,1324.9333,240.218,-28.03,85.94,C5H9F,trans-1-fluoro-3-methyl-1-butene,66213-75-0,140.517783494166,ML
C=C(F)C(C)C,2,4.363326407719208,1324.9333,240.218,-28.03,85.94,C5H9F,2-fluoro-3-methyl-1-butene,66213-78-3,138.1119923357602,ML
C=CC(C)(C)F,2,4.363326407719208,1324.9333,240.218,-28.03,85.94,C5H9F,3-fluoro-3-methyl-1-butene,66213-80-7,144.5151941880534,ML
C=CC(C)CF,2,4.363326407719208,1324.9333,240.218,-28.03,85.94,C5H9F,4-fluoro-3-methyl-1-butene,66213-82-9,150.88075150878504,ML
CC(C)=CCF,2,4.363326407719208,1324.9333,240.218,-28.03,85.94,C5H9F,1-fluoro-3-methyl-2-butene,23425-81-2,147.0588557585363,ML
CC(C)=C(C)F,2,4.363326407719208,1324.9333,240.218,-28.03,85.94,C5H9F,2-fluoro-3-methyl-2-butene,66213-79-4,151.37446895000554,ML
C=C(CC)CF,2,4.363326407719208,1324.9333,240.218,-28.03,85.94,C5H9F,3-fluoro-2-ethyl-1-propene,---,137.18624025430293,ML
CC(C)OC(=O)CF,3,5.869286407719208,2316.0,273.16,-0.15,142.77,C5H9FO2,"fluoroacetic acid, 1-methylethyl ester",406-06-4,218.70153662724974,ML
COC(=O)CCCF,3,6.195686407719208,2471.7,273.15,-0.15,146.16,C5H9FO2,methyl 4-fluorobutanoate,900000-61-5,211.80279913031094,ML
COC(=O)C(O)C(C)F,3,7.222786407719209,3252.1,273.15,84.08,196.69,C5H9FO3,methyl 3-fluoro-2-hydroxybutanoate,900000-62-6,261.600521682669,ML
CCCCC(F)(F)F,3,3.3403564077192085,1012.2112,232.55,-38.68,100.49,C5H9F3,"1,1,1-trifluoropentane",406-82-6,168.19079960706878,ML
CCCC=CI,2,5.803266407719208,2007.176,214.642,46.57,150.15,C5H9I,1-iodo-1-pentene,---,190.56603396825847,ML
CCC/C=C\I,2,5.803266407719208,2007.176,214.642,46.57,150.15,C5H9I,cis-1-iodo-1-pentene,66703-02-4,181.15982495076915,ML
CCC/C=C/I,2,5.803266407719208,2007.176,214.642,46.57,150.15,C5H9I,trans-1-iodo-1-pentene,66703-03-5,191.788862195599,ML
C=C(I)CCC,2,4.7498664077192085,1667.4639,219.827,31.65,154.98,C5H9I,2-iodo-1-pentene,66688-59-3,186.90198948482552,ML
C=CC(I)CC,2,4.734536407719209,1662.5045,219.916,31.39,155.07,C5H9I,3-iodo-1-pentene,66688-61-7,192.07190700617363,ML
C=CCC(C)I,2,4.734536407719209,1662.5045,219.916,31.39,155.07,C5H9I,4-iodo-1-pentene,59967-14-5,178.44514482965621,ML
C=CCCCI,2,5.8703364077192095,2028.7418,214.364,47.37,149.91,C5H9I,5-iodo-1-pentene,7766-48-5,182.89461061868758,ML
CC/C=C\CI,2,5.138546407719209,1793.0553,217.714,37.73,152.94,C5H9I,1-iodo-cis-2-pentene,66703-04-6,196.5242105252836,ML
CC/C=C/CI,2,5.138546407719209,1793.0553,217.714,37.73,152.94,C5H9I,1-iodo-trans-2-pentene,66688-56-0,206.754005899534,ML
C/C=C\C(C)I,2,5.114676407719209,1785.3496,217.837,37.38,153.06,C5H9I,4-iodo-cis-2-pentene,66688-62-8,190.9891458329993,ML
C/C=C/C(C)I,2,5.114676407719209,1785.3496,217.837,37.38,153.06,C5H9I,4-iodo-trans-2-pentene,66688-63-9,194.33423503712208,ML
C/C=C\CCI,2,5.138546407719209,1793.0553,217.714,37.73,152.94,C5H9I,5-iodo-cis-2-pentene,66688-64-0,183.1263491811986,ML
C/C=C/CCI,2,5.138546407719209,1793.0553,217.714,37.73,152.94,C5H9I,5-iodo-trans-2-pentene,56399-98-5,190.5749575396534,ML
C=C(C)C(C)I,2,5.079196407719208,1773.8968,218.02,36.85,153.23,C5H9I,3-iodo-2-methyl-1-butene,66703-00-2,206.22073276799077,ML
C=C(C)CCI,2,5.079196407719208,1773.8968,218.02,36.85,153.23,C5H9I,4-iodo-2-methyl-1-butene,53750-52-0,195.264782921171,ML
CC(C)/C=C\I,2,5.114676407719209,1785.3496,217.837,37.38,153.06,C5H9I,cis-1-iodo-3-methyl-1-butene,64245-25-6,191.88541115728023,ML
CC(C)/C=C/I,2,5.114676407719209,1785.3496,217.837,37.38,153.06,C5H9I,trans-1-iodo-3-methyl-1-butene,66702-96-3,199.03471712041787,ML
C=C(I)C(C)C,2,4.728816407719209,1660.6512,219.949,31.3,155.1,C5H9I,2-iodo-3-methyl-1-butene,32442-47-0,196.85827577569842,ML
C=CC(C)(C)I,2,4.604166407719209,1620.2958,220.692,29.16,155.85,C5H9I,3-iodo-3-methyl-1-butene,59128-91-5,202.09811345845503,ML
C=CC(C)CI,2,4.734536407719209,1662.5045,219.916,31.39,155.07,C5H9I,4-iodo-3-methyl-1-butene,66703-01-3,202.30947561375777,ML
CC(C)=CCI,2,5.132016407719208,1790.9481,217.748,37.63,152.97,C5H9I,1-iodo-3-methyl-2-butene,41004-19-7,207.08876387254054,ML
CC(C)=C(C)I,2,5.125506407719209,1788.8452,217.781,37.54,153.0,C5H9I,2-iodo-3-methyl-2-butene,66702-99-6,208.5720191507764,ML
C=C(CC)CI,2,4.7498664077192085,1667.4639,219.827,31.65,154.98,C5H9I,3-iodo-2-ethyl-1-propene,---,204.44343599814718,ML
CCCCC(I)(I)I,2,11.196606407719209,4757.8883,167.983,195.84,268.7,C5H9I3,"1,1,1-triiodopentane",---,299.2315799155085,ML
CCCCC#N,"1,2",4.4981064077192086,1670.1299,230.446,31.37,167.48,C5H9N,valeronitrile,110-59-8,176.95,Yaw
CCC(C)C#N,"1,2",4.033696407719209,1228.045,179.596,28.04,149.4,C5H9N,2-methylbutanenitrile,18936-17-9,212.82,Yaw
CC(C)CC#N,"1,2",4.1198464077192085,1260.7646,178.172,31.93,151.97,C5H9N,3-methylbutanenitrile,625-28-5,172.35,Yaw