smiles,code,A [log10(atm)],B [C],C [C],TMIN [C],TMAX [C],FORMULA,NAME,CAS No,mp [K],mp_type
CC#CC(C)C(C)CCCC,2,4.270116407719208,1706.7754,204.912,72.57,225.1,C11H20,"4,5-dimethyl-2-nonyne",---,222.18,Yaw
CC#CC(C)CC(C)CCC,2,4.270116407719208,1706.7754,204.912,72.57,225.1,C11H20,"4,6-dimethyl-2-nonyne",---,222.18,Yaw
CC#CC(C)CCC(C)CC,2,4.270116407719208,1706.7754,204.912,72.57,225.1,C11H20,"4,7-dimethyl-2-nonyne",---,222.18,Yaw
CC#CC(C)CCCC(C)C,2,4.270116407719208,1706.7754,204.912,72.57,225.1,C11H20,"4,8-dimethyl-2-nonyne",---,222.18,Yaw
CCCCC#CC(C)(C)CC,2,4.270116407719208,1706.7754,204.912,72.57,225.1,C11H20,"3,3-dimethyl-4-nonyne",29022-31-9,222.18,Yaw
C#CC(CC)CCCCCC,2,4.5340964077192085,1803.4651,202.966,78.17,223.08,C11H20,3-ethyl-1-nonyne,---,222.18,Yaw
C#CCC(CC)CCCCC,2,4.5340964077192085,1803.4651,202.966,78.17,223.08,C11H20,4-ethyl-1-nonyne,---,222.18,Yaw
C#CCCC(CC)CCCC,2,4.5340964077192085,1803.4651,202.966,78.17,223.08,C11H20,5-ethyl-1-nonyne,---,222.18,Yaw
C#CCCCC(CC)CCC,2,4.5340964077192085,1803.4651,202.966,78.17,223.08,C11H20,6-ethyl-1-nonyne,---,222.18,Yaw
C#CCCCCC(CC)CC,2,4.5340964077192085,1803.4651,202.966,78.17,223.08,C11H20,7-ethyl-1-nonyne,---,222.18,Yaw
C1CCC(C2CCCC2)CC1,3,3.292436407719209,1100.5413,124.474,88.26,243.43,C11H20,cyclopentylcyclohexane,1606-08-2,261.2605244069866,ML
C1CCC2(CC1)CCCCC2,3,4.765346407719209,1494.8971,103.912,95.85,230.94,C11H20,spiro[5.5]undecane,180-43-8,283.2936818664668,ML
CCCCCCC1C=CCC1,2,4.493396407719208,1839.9411,214.687,73.97,224.19,C11H20,3-hexylcyclopentene,37689-18-2,217.75447429364058,ML
ClCCCCCCCCCCC(Cl)(Cl)Cl,3,9.339286407719207,4830.0,273.15,157.33,261.25,C11H20Cl4,"1,1,1,11-tetrachloroundecane",3922-34-7,294.2476665164183,ML
CCCCCCCCC#CCO,3,5.0940864077192085,2287.3097,181.771,146.0,295.0,C11H20O,2-undecyn-1-ol,---,283.45,Yaw
CCCCCCCC#CCCO,3,5.0940864077192085,2287.3097,181.771,146.0,295.0,C11H20O,3-undecyn-1-ol,---,283.45,Yaw
CCCCCCC#CCCCO,3,5.0940864077192085,2287.3097,181.771,146.0,295.0,C11H20O,4-undecyn-1-ol,---,283.45,Yaw
CCCCCC#CCCCCO,3,5.0940864077192085,2287.3097,181.771,146.0,295.0,C11H20O,5-undecyn-1-ol,---,283.45,Yaw
CCCCC#CCCCCCO,3,5.0940864077192085,2287.3097,181.771,146.0,295.0,C11H20O,6-undecyn-1-ol,---,283.45,Yaw
CCCC#CCCCCCCO,3,5.0940864077192085,2287.3097,181.771,146.0,295.0,C11H20O,7-undecyn-1-ol,---,283.45,Yaw
CCC#CCCCCCCCO,3,5.0940864077192085,2287.3097,181.771,146.0,295.0,C11H20O,8-undecyn-1-ol,---,283.45,Yaw
CC#CCCCCCCCCO,3,5.0940864077192085,2287.3097,181.771,146.0,295.0,C11H20O,9-undecyn-1-ol,---,283.45,Yaw
C#CCCCCCCCCCO,3,5.0940864077192085,2287.3097,181.771,146.0,295.0,C11H20O,10-undecyn-1-ol,---,283.45,Yaw
CCCCCCCC#CC(C)O,3,5.0940864077192085,2287.3097,181.771,146.0,295.0,C11H20O,3-undecyn-2-ol,---,283.45,Yaw
CCCCCCC#CCC(C)O,3,5.0940864077192085,2287.3097,181.771,146.0,295.0,C11H20O,4-undecyn-2-ol,---,283.45,Yaw
CCCCCC#CCCC(C)O,3,5.0940864077192085,2287.3097,181.771,146.0,295.0,C11H20O,5-undecyn-2-ol,---,283.45,Yaw
CCCCC#CCCCC(C)O,3,5.0940864077192085,2287.3097,181.771,146.0,295.0,C11H20O,6-undecyn-2-ol,---,283.45,Yaw
CCCC#CCCCCC(C)O,3,5.0940864077192085,2287.3097,181.771,146.0,295.0,C11H20O,7-undecyn-2-ol,---,283.45,Yaw
CCC#CCCCCCC(C)O,3,5.0940864077192085,2287.3097,181.771,146.0,295.0,C11H20O,8-undecyn-2-ol,---,283.45,Yaw
CC#CCCCCCCC(C)O,3,5.0940864077192085,2287.3097,181.771,146.0,295.0,C11H20O,9-undecyn-2-ol,---,283.45,Yaw
C#CCCCCCCCC(C)O,3,5.0940864077192085,2287.3097,181.771,146.0,295.0,C11H20O,10-undecyn-2-ol,---,283.45,Yaw
CCCCCCC#CC(O)CC,3,5.0940864077192085,2287.3097,181.771,146.0,295.0,C11H20O,4-undecyn-3-ol,---,283.45,Yaw
CCCCCC#CCC(O)CC,3,5.0940864077192085,2287.3097,181.771,146.0,295.0,C11H20O,5-undecyn-3-ol,---,283.45,Yaw
CCCCC#CCCC(O)CC,3,5.0940864077192085,2287.3097,181.771,146.0,295.0,C11H20O,6-undecyn-3-ol,---,283.45,Yaw
CCCC#CCCCC(O)CC,3,5.0940864077192085,2287.3097,181.771,146.0,295.0,C11H20O,7-undecyn-3-ol,---,283.45,Yaw
CCC#CCCCCC(O)CC,3,5.0940864077192085,2287.3097,181.771,146.0,295.0,C11H20O,8-undecyn-3-ol,---,283.45,Yaw
CC#CCCCCCC(O)CC,3,5.0940864077192085,2287.3097,181.771,146.0,295.0,C11H20O,9-undecyn-3-ol,---,283.45,Yaw
C#CCCCCCCC(O)CC,3,5.0940864077192085,2287.3097,181.771,146.0,295.0,C11H20O,10-undecyn-3-ol,---,283.45,Yaw
CCCCCC#CC(O)CCC,3,5.0940864077192085,2287.3097,181.771,146.0,295.0,C11H20O,5-undecyn-4-ol,---,283.45,Yaw
CCCCC#CCC(O)CCC,3,5.0940864077192085,2287.3097,181.771,146.0,295.0,C11H20O,6-undecyn-4-ol,---,283.45,Yaw
CCCC#CCCC(O)CCC,3,5.0940864077192085,2287.3097,181.771,146.0,295.0,C11H20O,7-undecyn-4-ol,---,283.45,Yaw
CCC#CCCCC(O)CCC,3,5.0940864077192085,2287.3097,181.771,146.0,295.0,C11H20O,8-undecyn-4-ol,---,283.45,Yaw
CC#CCCCCC(O)CCC,3,5.0940864077192085,2287.3097,181.771,146.0,295.0,C11H20O,9-undecyn-4-ol,---,283.45,Yaw
C#CCCCCCC(O)CCC,3,5.0940864077192085,2287.3097,181.771,146.0,295.0,C11H20O,10-undecyn-4-ol,---,283.45,Yaw
CCCCC#CC(O)CCCC,3,5.0940864077192085,2287.3097,181.771,146.0,295.0,C11H20O,6-undecyn-5-ol,---,283.45,Yaw
CCCC#CCC(O)CCCC,3,5.0940864077192085,2287.3097,181.771,146.0,295.0,C11H20O,7-undecyn-5-ol,---,283.45,Yaw
CCC#CCCC(O)CCCC,3,5.0940864077192085,2287.3097,181.771,146.0,295.0,C11H20O,8-undecyn-5-ol,---,283.45,Yaw
CC#CCCCC(O)CCCC,3,5.0940864077192085,2287.3097,181.771,146.0,295.0,C11H20O,9-undecyn-5-ol,---,283.45,Yaw
C#CCCCCC(O)CCCC,3,5.0940864077192085,2287.3097,181.771,146.0,295.0,C11H20O,10-undecyn-5-ol,---,283.45,Yaw
CCCCCCC(C)C#CCO,3,5.0940864077192085,2287.3097,181.771,146.0,295.0,C11H20O,4-methyl-2-decyn-1-ol,---,283.45,Yaw
CCCCCC(C)CC#CCO,3,5.0940864077192085,2287.3097,181.771,146.0,295.0,C11H20O,5-methyl-2-decyn-1-ol,---,283.45,Yaw
CCCCC(C)CCC#CCO,3,5.0940864077192085,2287.3097,181.771,146.0,295.0,C11H20O,6-methyl-2-decyn-1-ol,---,283.45,Yaw
CCCC(C)CCCC#CCO,3,5.0940864077192085,2287.3097,181.771,146.0,295.0,C11H20O,7-methyl-2-decyn-1-ol,---,283.45,Yaw
CCC(C)CCCCC#CCO,3,5.0940864077192085,2287.3097,181.771,146.0,295.0,C11H20O,8-methyl-2-decyn-1-ol,---,283.45,Yaw
CC(C)CCCCCC#CCO,3,5.0940864077192085,2287.3097,181.771,146.0,295.0,C11H20O,9-methyl-2-decyn-1-ol,---,283.45,Yaw
CCCCCCC#CC(C)CO,3,5.0940864077192085,2287.3097,181.771,146.0,295.0,C11H20O,2-methyl-3-decyn-1-ol,---,283.45,Yaw
CCCCCC(C)C#CCCO,3,5.0940864077192085,2287.3097,181.771,146.0,295.0,C11H20O,5-methyl-3-decyn-1-ol,---,283.45,Yaw
CCCCC(C)CC#CCCO,3,5.0940864077192085,2287.3097,181.771,146.0,295.0,C11H20O,6-methyl-3-decyn-1-ol,---,283.45,Yaw
CCCC(C)CCC#CCCO,3,5.0940864077192085,2287.3097,181.771,146.0,295.0,C11H20O,7-methyl-3-decyn-1-ol,---,283.45,Yaw
CCC(C)CCCC#CCCO,3,5.0940864077192085,2287.3097,181.771,146.0,295.0,C11H20O,8-methyl-3-decyn-1-ol,---,283.45,Yaw
CC(C)CCCCC#CCCO,3,5.0940864077192085,2287.3097,181.771,146.0,295.0,C11H20O,9-methyl-3-decyn-1-ol,---,283.45,Yaw
CCCCCC#CCC(C)CO,3,5.0940864077192085,2287.3097,181.771,146.0,295.0,C11H20O,2-methyl-4-decyn-1-ol,---,283.45,Yaw
CCCCCC#CC(C)CCO,3,5.0940864077192085,2287.3097,181.771,146.0,295.0,C11H20O,3-methyl-4-decyn-1-ol,---,283.45,Yaw
CCCCC(C)C#CCCCO,3,5.0940864077192085,2287.3097,181.771,146.0,295.0,C11H20O,6-methyl-4-decyn-1-ol,---,283.45,Yaw
CCCC(C)CC#CCCCO,3,5.0940864077192085,2287.3097,181.771,146.0,295.0,C11H20O,7-methyl-4-decyn-1-ol,---,283.45,Yaw
CCC(C)CCC#CCCCO,3,5.0940864077192085,2287.3097,181.771,146.0,295.0,C11H20O,8-methyl-4-decyn-1-ol,---,283.45,Yaw
CC(C)CCCC#CCCCO,3,5.0940864077192085,2287.3097,181.771,146.0,295.0,C11H20O,9-methyl-4-decyn-1-ol,---,283.45,Yaw
CCCCC#CCCC(C)CO,3,5.0940864077192085,2287.3097,181.771,146.0,295.0,C11H20O,2-methyl-5-decyn-1-ol,---,283.45,Yaw
CCCCC#CCC(C)CCO,3,5.0940864077192085,2287.3097,181.771,146.0,295.0,C11H20O,3-methyl-5-decyn-1-ol,---,283.45,Yaw
CCCCC#CC(C)CCCO,3,5.0940864077192085,2287.3097,181.771,146.0,295.0,C11H20O,4-methyl-5-decyn-1-ol,---,283.45,Yaw
CCCC(C)C#CCCCCO,3,5.0940864077192085,2287.3097,181.771,146.0,295.0,C11H20O,7-methyl-5-decyn-1-ol,---,283.45,Yaw
CCC(C)CC#CCCCCO,3,5.0940864077192085,2287.3097,181.771,146.0,295.0,C11H20O,8-methyl-5-decyn-1-ol,---,283.45,Yaw
CC(C)CCC#CCCCCO,3,5.0940864077192085,2287.3097,181.771,146.0,295.0,C11H20O,9-methyl-5-decyn-1-ol,---,283.45,Yaw
CCCC#CCCCC(C)CO,3,5.0940864077192085,2287.3097,181.771,146.0,295.0,C11H20O,2-methyl-6-decyn-1-ol,---,283.45,Yaw
CCCC#CCCC(C)CCO,3,5.0940864077192085,2287.3097,181.771,146.0,295.0,C11H20O,3-methyl-6-decyn-1-ol,---,283.45,Yaw
CCCC#CCC(C)CCCO,3,5.0940864077192085,2287.3097,181.771,146.0,295.0,C11H20O,4-methyl-6-decyn-1-ol,---,283.45,Yaw
CCCC#CC(C)CCCCO,3,5.0940864077192085,2287.3097,181.771,146.0,295.0,C11H20O,5-methyl-6-decyn-1-ol,---,283.45,Yaw
CCC(C)C#CCCCCCO,3,5.0940864077192085,2287.3097,181.771,146.0,295.0,C11H20O,8-methyl-6-decyn-1-ol,---,283.45,Yaw
CC(C)CC#CCCCCCO,3,5.0940864077192085,2287.3097,181.771,146.0,295.0,C11H20O,9-methyl-6-decyn-1-ol,---,283.45,Yaw
CCC#CCCCCC(C)CO,3,5.0940864077192085,2287.3097,181.771,146.0,295.0,C11H20O,2-methyl-7-decyn-1-ol,---,283.45,Yaw
CCC#CCCCC(C)CCO,3,5.0940864077192085,2287.3097,181.771,146.0,295.0,C11H20O,3-methyl-7-decyn-1-ol,---,283.45,Yaw
CCC#CCCC(C)CCCO,3,5.0940864077192085,2287.3097,181.771,146.0,295.0,C11H20O,4-methyl-7-decyn-1-ol,---,283.45,Yaw
CCC#CCC(C)CCCCO,3,5.0940864077192085,2287.3097,181.771,146.0,295.0,C11H20O,5-methyl-7-decyn-1-ol,---,283.45,Yaw
CCC#CC(C)CCCCCO,3,5.0940864077192085,2287.3097,181.771,146.0,295.0,C11H20O,6-methyl-7-decyn-1-ol,---,283.45,Yaw
CC#CCCCCCC(C)CO,3,5.0940864077192085,2287.3097,181.771,146.0,295.0,C11H20O,2-methyl-8-decyn-1-ol,---,283.45,Yaw
CC#CCCCCC(C)CCO,3,5.0940864077192085,2287.3097,181.771,146.0,295.0,C11H20O,3-methyl-8-decyn-1-ol,---,283.45,Yaw
CC#CCCCC(C)CCCO,3,5.0940864077192085,2287.3097,181.771,146.0,295.0,C11H20O,4-methyl-8-decyn-1-ol,---,283.45,Yaw
CC#CCCC(C)CCCCO,3,5.0940864077192085,2287.3097,181.771,146.0,295.0,C11H20O,5-methyl-8-decyn-1-ol,---,283.45,Yaw
CC#CCC(C)CCCCCO,3,5.0940864077192085,2287.3097,181.771,146.0,295.0,C11H20O,6-methyl-8-decyn-1-ol,---,283.45,Yaw
CC#CC(C)CCCCCCO,3,5.0940864077192085,2287.3097,181.771,146.0,295.0,C11H20O,7-methyl-8-decyn-1-ol,---,283.45,Yaw
C#CCCCCCCC(C)CO,3,5.0940864077192085,2287.3097,181.771,146.0,295.0,C11H20O,2-methyl-9-decyn-1-ol,---,283.45,Yaw
C#CCCCCCC(C)CCO,3,5.0940864077192085,2287.3097,181.771,146.0,295.0,C11H20O,3-methyl-9-decyn-1-ol,---,283.45,Yaw
C#CCCCCC(C)CCCO,3,5.0940864077192085,2287.3097,181.771,146.0,295.0,C11H20O,4-methyl-9-decyn-1-ol,---,283.45,Yaw
C#CCCCC(C)CCCCO,3,5.0940864077192085,2287.3097,181.771,146.0,295.0,C11H20O,5-methyl-9-decyn-1-ol,---,283.45,Yaw
C#CCCC(C)CCCCCO,3,5.0940864077192085,2287.3097,181.771,146.0,295.0,C11H20O,6-methyl-9-decyn-1-ol,---,283.45,Yaw
C#CCC(C)CCCCCCO,3,5.0940864077192085,2287.3097,181.771,146.0,295.0,C11H20O,7-methyl-9-decyn-1-ol,---,283.45,Yaw
CCCCCCCCC=CC=O,2,4.201066407719209,1837.6297,190.178,111.97,281.0,C11H20O,2-undecenal,2463-77-6,261.15,Yaw
CCCCCCCC/C=C/C=O,2,4.201066407719209,1837.6297,190.178,111.97,281.0,C11H20O,trans-2-undecenal,1337-83-3,270.65,Yaw
CCCCCCCC=CCC=O,2,4.201066407719209,1837.6297,190.178,111.97,281.0,C11H20O,3-undecenal,---,270.65,Yaw
CCCCCCC=CCCC=O,2,4.201066407719209,1837.6297,190.178,111.97,281.0,C11H20O,4-undecenal,---,270.65,Yaw
CCCCCC=CCCCC=O,2,4.201066407719209,1837.6297,190.178,111.97,281.0,C11H20O,5-undecenal,---,270.65,Yaw
CCCCC=CCCCCC=O,2,4.201066407719209,1837.6297,190.178,111.97,281.0,C11H20O,6-undecenal,---,270.65,Yaw
CCCC=CCCCCCC=O,2,4.201066407719209,1837.6297,190.178,111.97,281.0,C11H20O,7-undecenal,---,270.65,Yaw
CCC=CCCCCCCC=O,2,4.201066407719209,1837.6297,190.178,111.97,281.0,C11H20O,8-undecenal,58296-81-4,270.65,Yaw
CC=CCCCCCCCC=O,2,4.201066407719209,1837.6297,190.178,111.97,281.0,C11H20O,9-undecenal,143-14-6,270.65,Yaw
C=CCCCCCCCCC=O,"1,2",4.440766407719209,1910.0541,190.178,111.97,271.22,C11H20O,10-undecenal,112-45-8,280.15,Yaw
CCCCCCCC=C(C)C=O,2,3.897956407719208,1715.8817,192.958,103.97,284.08,C11H20O,2-methyl-2-decenal,---,270.65,Yaw
CCCCCCCC(C)=CC=O,2,3.897956407719208,1715.8817,192.958,103.97,284.08,C11H20O,3-methyl-2-decenal,---,270.65,Yaw
CCCCCCC(C)C=CC=O,2,3.897956407719208,1715.8817,192.958,103.97,284.08,C11H20O,4-methyl-2-decenal,---,270.65,Yaw
CCCCCC(C)CC=CC=O,2,3.897956407719208,1715.8817,192.958,103.97,284.08,C11H20O,5-methyl-2-decenal,---,270.65,Yaw
CCCCC(C)CCC=CC=O,2,3.897956407719208,1715.8817,192.958,103.97,284.08,C11H20O,6-methyl-2-decenal,---,270.65,Yaw
CCCC(C)CCCC=CC=O,2,3.897956407719208,1715.8817,192.958,103.97,284.08,C11H20O,7-methyl-2-decenal,---,270.65,Yaw
CCC(C)CCCCC=CC=O,2,3.897956407719208,1715.8817,192.958,103.97,284.08,C11H20O,8-methyl-2-decenal,---,270.65,Yaw
CC(C)CCCCCC=CC=O,2,3.897956407719208,1715.8817,192.958,103.97,284.08,C11H20O,9-methyl-2-decenal,---,270.65,Yaw
CCCCCCC=CC(C)C=O,2,3.897956407719208,1715.8817,192.958,103.97,284.08,C11H20O,2-methyl-3-decenal,---,270.65,Yaw
CCCCCCC=C(C)CC=O,2,3.897956407719208,1715.8817,192.958,103.97,284.08,C11H20O,3-methyl-3-decenal,---,270.65,Yaw
CCCCCCC(C)=CCC=O,2,3.897956407719208,1715.8817,192.958,103.97,284.08,C11H20O,4-methyl-3-decenal,---,270.65,Yaw
CCCCCC(C)C=CCC=O,2,3.897956407719208,1715.8817,192.958,103.97,284.08,C11H20O,5-methyl-3-decenal,---,270.65,Yaw
CCCCC(C)CC=CCC=O,2,3.897956407719208,1715.8817,192.958,103.97,284.08,C11H20O,6-methyl-3-decenal,---,270.65,Yaw
CCCC(C)CCC=CCC=O,2,3.897956407719208,1715.8817,192.958,103.97,284.08,C11H20O,7-methyl-3-decenal,---,270.65,Yaw
CCC(C)CCCC=CCC=O,2,3.897956407719208,1715.8817,192.958,103.97,284.08,C11H20O,8-methyl-3-decenal,---,270.65,Yaw
CC(C)CCCCC=CCC=O,2,3.897956407719208,1715.8817,192.958,103.97,284.08,C11H20O,9-methyl-3-decenal,---,270.65,Yaw
CCCCCC=CCC(C)C=O,2,3.897956407719208,1715.8817,192.958,103.97,284.08,C11H20O,2-methyl-4-decenal,---,270.65,Yaw
CCCCCC=CC(C)CC=O,2,3.897956407719208,1715.8817,192.958,103.97,284.08,C11H20O,3-methyl-4-decenal,---,270.65,Yaw
CCCCCC=C(C)CCC=O,2,3.897956407719208,1715.8817,192.958,103.97,284.08,C11H20O,4-methyl-4-decenal,---,270.65,Yaw
CCCCCC(C)=CCCC=O,2,3.897956407719208,1715.8817,192.958,103.97,284.08,C11H20O,5-methyl-4-decenal,---,270.65,Yaw
CCCCC(C)C=CCCC=O,2,3.897956407719208,1715.8817,192.958,103.97,284.08,C11H20O,6-methyl-4-decenal,---,270.65,Yaw
CCCC(C)CC=CCCC=O,2,3.897956407719208,1715.8817,192.958,103.97,284.08,C11H20O,7-methyl-4-decenal,---,270.65,Yaw
CCC(C)CCC=CCCC=O,2,3.897956407719208,1715.8817,192.958,103.97,284.08,C11H20O,8-methyl-4-decenal,---,270.65,Yaw
CC(C)CCCC=CCCC=O,2,3.897956407719208,1715.8817,192.958,103.97,284.08,C11H20O,9-methyl-4-decenal,---,270.65,Yaw
CCCCC=CCCC(C)C=O,2,3.897956407719208,1715.8817,192.958,103.97,284.08,C11H20O,2-methyl-5-decenal,---,270.65,Yaw
CCCCC=CCC(C)CC=O,2,3.897956407719208,1715.8817,192.958,103.97,284.08,C11H20O,3-methyl-5-decenal,---,270.65,Yaw
CCCCC=CC(C)CCC=O,2,3.897956407719208,1715.8817,192.958,103.97,284.08,C11H20O,4-methyl-5-decenal,---,270.65,Yaw
CCCCC=C(C)CCCC=O,2,3.897956407719208,1715.8817,192.958,103.97,284.08,C11H20O,5-methyl-5-decenal,---,270.65,Yaw
CCCCC(C)=CCCCC=O,2,3.897956407719208,1715.8817,192.958,103.97,284.08,C11H20O,6-methyl-5-decenal,---,270.65,Yaw
CCCC(C)C=CCCCC=O,2,3.897956407719208,1715.8817,192.958,103.97,284.08,C11H20O,7-methyl-5-decenal,---,270.65,Yaw
CCC(C)CC=CCCCC=O,2,3.897956407719208,1715.8817,192.958,103.97,284.08,C11H20O,8-methyl-5-decenal,---,270.65,Yaw
CC(C)CCC=CCCCC=O,2,3.897956407719208,1715.8817,192.958,103.97,284.08,C11H20O,9-methyl-5-decenal,---,270.65,Yaw
CCCC=CCCCC(C)C=O,2,3.897956407719208,1715.8817,192.958,103.97,284.08,C11H20O,2-methyl-6-decenal,---,270.65,Yaw
CCCC=CCCC(C)CC=O,2,3.897956407719208,1715.8817,192.958,103.97,284.08,C11H20O,3-methyl-6-decenal,---,270.65,Yaw
CCCC=CCC(C)CCC=O,2,3.897956407719208,1715.8817,192.958,103.97,284.08,C11H20O,4-methyl-6-decenal,---,270.65,Yaw
CCCC=CC(C)CCCC=O,2,3.897956407719208,1715.8817,192.958,103.97,284.08,C11H20O,5-methyl-6-decenal,---,270.65,Yaw
CCCC=C(C)CCCCC=O,2,3.897956407719208,1715.8817,192.958,103.97,284.08,C11H20O,6-methyl-6-decenal,---,270.65,Yaw
CCCC(C)=CCCCCC=O,2,3.897956407719208,1715.8817,192.958,103.97,284.08,C11H20O,7-methyl-6-decenal,---,270.65,Yaw
CCC(C)C=CCCCCC=O,2,3.897956407719208,1715.8817,192.958,103.97,284.08,C11H20O,8-methyl-6-decenal,---,270.65,Yaw
CC(C)CC=CCCCCC=O,2,3.897956407719208,1715.8817,192.958,103.97,284.08,C11H20O,9-methyl-6-decenal,---,270.65,Yaw
CCC=CCCCCC(C)C=O,2,3.897956407719208,1715.8817,192.958,103.97,284.08,C11H20O,2-methyl-7-decenal,---,270.65,Yaw
CCC=CCCCC(C)CC=O,2,3.897956407719208,1715.8817,192.958,103.97,284.08,C11H20O,3-methyl-7-decenal,---,270.65,Yaw
CCC=CCCC(C)CCC=O,2,3.897956407719208,1715.8817,192.958,103.97,284.08,C11H20O,4-methyl-7-decenal,---,270.65,Yaw
CCC=CCC(C)CCCC=O,2,3.897956407719208,1715.8817,192.958,103.97,284.08,C11H20O,5-methyl-7-decenal,---,270.65,Yaw
CCC=CC(C)CCCCC=O,2,3.897956407719208,1715.8817,192.958,103.97,284.08,C11H20O,6-methyl-7-decenal,---,270.65,Yaw
CCC=C(C)CCCCCC=O,2,3.897956407719208,1715.8817,192.958,103.97,284.08,C11H20O,7-methyl-7-decenal,---,270.65,Yaw
CCC(C)=CCCCCCC=O,2,3.897956407719208,1715.8817,192.958,103.97,284.08,C11H20O,8-methyl-7-decenal,---,270.65,Yaw
CC(C)C=CCCCCCC=O,2,3.897956407719208,1715.8817,192.958,103.97,284.08,C11H20O,9-methyl-7-decenal,---,270.65,Yaw
CC=CCCCCCC(C)C=O,2,3.897956407719208,1715.8817,192.958,103.97,284.08,C11H20O,2-methyl-8-decenal,---,270.65,Yaw
CC=CCCCCC(C)CC=O,2,3.897956407719208,1715.8817,192.958,103.97,284.08,C11H20O,3-methyl-8-decenal,---,270.65,Yaw
CC=CCCCC(C)CCC=O,2,3.897956407719208,1715.8817,192.958,103.97,284.08,C11H20O,4-methyl-8-decenal,---,270.65,Yaw
CC=CCCC(C)CCCC=O,2,3.897956407719208,1715.8817,192.958,103.97,284.08,C11H20O,5-methyl-8-decenal,---,270.65,Yaw
CC=CCC(C)CCCCC=O,2,3.897956407719208,1715.8817,192.958,103.97,284.08,C11H20O,6-methyl-8-decenal,---,270.65,Yaw
CC=CC(C)CCCCCC=O,2,3.897956407719208,1715.8817,192.958,103.97,284.08,C11H20O,7-methyl-8-decenal,---,270.65,Yaw
CC=C(C)CCCCCCC=O,2,3.897956407719208,1715.8817,192.958,103.97,284.08,C11H20O,8-methyl-8-decenal,---,270.65,Yaw
CC(C)=CCCCCCCC=O,2,3.897956407719208,1715.8817,192.958,103.97,284.08,C11H20O,9-methyl-8-decenal,---,270.65,Yaw
C=CCCCCCCC(C)C=O,2,3.897956407719208,1715.8817,192.958,103.97,284.08,C11H20O,2-methyl-9-decenal,---,270.65,Yaw
C=CCCCCCC(C)CC=O,2,3.897956407719208,1715.8817,192.958,103.97,284.08,C11H20O,3-methyl-9-decenal,---,270.65,Yaw
C=CCCCCC(C)CCC=O,2,3.897956407719208,1715.8817,192.958,103.97,284.08,C11H20O,4-methyl-9-decenal,---,270.65,Yaw
C=CCCCC(C)CCCC=O,2,3.897956407719208,1715.8817,192.958,103.97,284.08,C11H20O,5-methyl-9-decenal,---,270.65,Yaw
C=CCCC(C)CCCCC=O,2,3.897956407719208,1715.8817,192.958,103.97,284.08,C11H20O,6-methyl-9-decenal,---,270.65,Yaw
C=CCC(C)CCCCCC=O,2,3.897956407719208,1715.8817,192.958,103.97,284.08,C11H20O,7-methyl-9-decenal,---,270.65,Yaw
C=CC(C)CCCCCCC=O,2,3.897956407719208,1715.8817,192.958,103.97,284.08,C11H20O,8-methyl-9-decenal,---,270.65,Yaw
C=C(C)CCCCCCCC=O,2,3.897956407719208,1715.8817,192.958,103.97,284.08,C11H20O,9-methyl-9-decenal,---,270.65,Yaw
CCCCCCC(C)=C(C)C=O,2,3.626916407719208,1606.6502,195.738,95.97,287.34,C11H20O,"2,3-dimethyl-2-nonenal",---,270.65,Yaw
CCCCCC(C)C=C(C)C=O,2,3.626916407719208,1606.6502,195.738,95.97,287.34,C11H20O,"2,4-dimethyl-2-nonenal",---,270.65,Yaw
CCCCC(C)CC=C(C)C=O,2,3.626916407719208,1606.6502,195.738,95.97,287.34,C11H20O,"2,5-dimethyl-2-nonenal",---,270.65,Yaw
CCCC(C)CCC=C(C)C=O,2,3.626916407719208,1606.6502,195.738,95.97,287.34,C11H20O,"2,6-dimethyl-2-nonenal",---,270.65,Yaw
CCC(C)CCCC=C(C)C=O,2,3.626916407719208,1606.6502,195.738,95.97,287.34,C11H20O,"2,7-dimethyl-2-nonenal",---,270.65,Yaw
CC(C=O)=CCCCCC(C)C,2,3.626916407719208,1606.6502,195.738,95.97,287.34,C11H20O,"2,8-dimethyl-2-nonenal",---,270.65,Yaw
CCCCCC=CC(C)(C)C=O,2,3.626916407719208,1606.6502,195.738,95.97,287.34,C11H20O,"2,2-dimethyl-3-nonenal",---,270.65,Yaw
CCCCCC=C(C)C(C)C=O,2,3.626916407719208,1606.6502,195.738,95.97,287.34,C11H20O,"2,3-dimethyl-3-nonenal",---,270.65,Yaw
CCCCCC(C)=CC(C)C=O,2,3.626916407719208,1606.6502,195.738,95.97,287.34,C11H20O,"2,4-dimethyl-3-nonenal",---,270.65,Yaw
CCCCC(C)C=CC(C)C=O,2,3.626916407719208,1606.6502,195.738,95.97,287.34,C11H20O,"2,5-dimethyl-3-nonenal",---,270.65,Yaw