smiles,code,A [log10(atm)],B [C],C [C],TMIN [C],TMAX [C],FORMULA,NAME,CAS No,mp [K],mp_type
CCC(C)c1cccs1,2,4.026746407719209,1571.1591,208.387,57.57,213.32,C8H12S,2-sec-butylthiophene,---,216.25,Yaw
CCC(C)c1ccsc1,2,4.0437164077192085,1577.2194,208.248,57.97,213.16,C8H12S,3-sec-butylthiophene,---,216.25,Yaw
CC(C)(C)c1cccs1,"1,2",4.6168664077192085,1728.6577,210.472,55.57,190.07,C8H12S,2-tert-butylthiophene,1689-78-7,214.05,Yaw
CC(C)(C)c1ccsc1,"1,2",4.619536407719209,1746.334,209.082,59.57,195.3,C8H12S,3-tert-butylthiophene,1689-79-8,218.45,Yaw
CCCc1ccsc1C,2,4.427316407719209,1713.9146,205.329,66.37,210.04,C8H12S,2-methyl-3-propylthiophene,---,216.25,Yaw
CCCc1csc(C)c1,2,4.4667864077192085,1727.9508,205.051,67.17,209.75,C8H12S,2-methyl-4-propyl thiophene,---,216.25,Yaw
CCCc1ccc(C)s1,2,4.506806407719209,1742.1794,204.773,67.97,209.46,C8H12S,2-methyl-5-propyl thiophene,---,216.25,Yaw
CCCc1sccc1C,2,4.446976407719209,1720.9089,205.19,66.77,209.89,C8H12S,3-methyl-2-propylthiophene,---,216.25,Yaw
CCCc1cscc1C,2,4.486726407719209,1735.0408,204.912,67.57,209.6,C8H12S,3-methyl-4-propyl thiophene,---,216.25,Yaw
CCCc1cc(C)cs1,2,4.527026407719209,1749.3672,204.634,68.37,209.32,C8H12S,3-methyl-5-propylthiophene,---,216.25,Yaw
CCc1cc(C)sc1C,2,4.446976407719209,1720.9089,205.19,66.77,209.89,C8H12S,"3-ethyl-2,5-dimethylthiophene",55735-23-4,216.25,Yaw
CCCCCCC#CCl,2,3.4061664077192084,1444.3177,207.734,65.45,257.4,C8H13Cl,1-chloro-1-octyne,64531-26-6,234.3005121795063,ML
CCCCCC#CCCl,2,3.4061664077192084,1444.3177,207.734,65.45,257.4,C8H13Cl,1-chloro-2-octyne,51575-83-8,235.16118238316326,ML
CCCCn1cccc1,2,4.321296407719209,1660.8275,208.665,59.12,204.45,C8H13N,1-butyl-1H-pyrrole,589-33-3,207.05,Yaw
CCc1c(C)c[nH]c1C,"1,2",4.616136407719209,1837.4169,200.742,63.75,225.07,C8H13N,"3-ethyl-2,4-dimethyl-1H-pyrrole",517-22-6,336.9,Yaw
CCc1c[nH]c(C)c1C,2,5.742456407719208,2159.933,200.464,82.87,196.48,C8H13N,"4-ethyl-2,3-dimethyl-1H-pyrrole",491-18-9,289.65,Yaw
CCc1ccc(CC)[nH]1,"1,2",4.540866407719209,1772.7212,204.342,63.75,213.77,C8H13N,"2,5-diethyl-1H-pyrrole",766-95-0,336.9,Yaw
CCCC1=CCCC1,"1,2",4.074416407719209,1410.2444,214.072,22.74,159.66,C8H14,1-propylcyclopentene,3074-61-1,172.85,Yaw
CC1=C(C)C(C)CC1,"1,2",4.326226407719209,1489.127,222.26,17.65,147.69,C8H14,"1,2,3-trimethylcyclopentene",473-91-6,172.85,Yaw
CC1=CCCC1(C)C,"1,2",4.420376407719209,1470.2702,225.762,7.57,131.16,C8H14,"1,5,5-trimethylcyclopentene",62184-83-2,172.85,Yaw
CCC1=CCCCC1,"1,2",4.0767264077192085,1408.8743,209.74,26.75,163.4,C8H14,1-ethylcyclohexene,1453-24-3,163.19,Yaw
CCC1C=CCCC1,"1,2",4.050946407719208,1400.9954,213.994,22.19,159.61,C8H14,3-ethylcyclohexene,2808-71-1,191.16,Yaw
CCC1CC=CCC1,2,4.312676407719208,1467.5279,213.73,23.22,152.09,C8H14,4-ethylcyclohexene,3742-42-5,191.16,Yaw
CC1=C(C)CCCC1,"1,2",4.0720564077192085,1419.2495,212.784,25.63,163.57,C8H14,"1,2-dimethylcyclohexene",1674-10-8,189.0,Yaw
CC1=CC(C)CCC1,"1,2",3.996456407719209,1366.3931,214.851,17.64,154.9,C8H14,"1,3-dimethylcyclohexene",2808-76-6,191.16,Yaw
CC1=CCC(C)CC1,"1,2",4.125446407719209,1400.7133,214.68,18.53,151.58,C8H14,"1,4-dimethylcyclohexene",2808-79-9,213.75,Yaw
CC1=CCCC(C)C1,"1,2",3.963626407719208,1361.626,214.68,18.3,157.08,C8H14,"1,5-dimethylcyclohexene",2808-77-7,191.16,Yaw
CC1=CCCCC1C,"1,2",4.232696407719208,1434.636,214.091,20.58,150.8,C8H14,"1,6-dimethylcyclohexene",1759-64-4,191.16,Yaw
CC1(C)C=CCCC1,2,3.746186407719208,1284.726,216.39,11.92,156.52,C8H14,"3,3-dimethylcyclohexene",695-28-3,191.16,Yaw
CC1(C)CC=CCC1,"1,2",3.879656407719208,1309.6743,216.724,10.63,149.25,C8H14,"4,4-dimethylcyclohexene",14072-86-7,198.68,Yaw
C#CCCCCCC,"1,2",4.051906407719208,1357.8347,208.91,19.96,153.09,C8H14,1-octyne,629-05-0,193.55,Yaw
CC#CCCCCC,"1,2",4.036426407719208,1383.3629,204.99,28.8,165.35,C8H14,2-octyne,2809-67-8,211.55,Yaw
CCC#CCCCC,"1,2",4.046536407719208,1376.7474,207.088,25.18,160.48,C8H14,3-octyne,15232-76-5,169.15,Yaw
CCCC#CCCC,"1,2",4.109216407719209,1403.711,210.001,24.34,158.6,C8H14,4-octyne,1942-45-6,172.15,Yaw
C#CC(C)CCCC,2,4.533096407719208,1578.3601,221.634,24.45,151.32,C8H14,3-methyl-1-heptyne,---,186.6,Yaw
C#CCC(C)CCC,2,4.533096407719208,1578.3601,221.634,24.45,151.32,C8H14,4-methyl-1-heptyne,---,186.6,Yaw
C#CCCC(C)CC,2,4.533096407719208,1578.3601,221.634,24.45,151.32,C8H14,5-methyl-1-heptyne,---,186.6,Yaw
C#CCCCC(C)C,2,4.533096407719208,1578.3601,221.634,24.45,151.32,C8H14,6-methyl-1-heptyne,---,186.6,Yaw
CC#CC(C)CCC,2,4.533096407719208,1578.3601,221.634,24.45,151.32,C8H14,4-methyl-2-heptyne,---,186.6,Yaw
CC#CCC(C)CC,2,4.533096407719208,1578.3601,221.634,24.45,151.32,C8H14,5-methyl-2-heptyne,---,186.6,Yaw
CC#CCCC(C)C,2,4.533096407719208,1578.3601,221.634,24.45,151.32,C8H14,6-methyl-2-heptyne,---,186.6,Yaw
CCC#CC(C)CC,2,4.533096407719208,1578.3601,221.634,24.45,151.32,C8H14,5-methyl-3-heptyne,---,186.6,Yaw
CCC#CCC(C)C,2,4.533096407719208,1578.3601,221.634,24.45,151.32,C8H14,6-methyl-3-heptyne,---,186.6,Yaw
CCCC#CC(C)C,2,4.533096407719208,1578.3601,221.634,24.45,151.32,C8H14,2-methyl-3-heptyne,---,186.6,Yaw
C#CC(C)(C)CCC,2,4.2335864077192085,1482.3135,223.58,18.85,153.35,C8H14,"3,3-dimethyl-1-hexyne",---,186.6,Yaw
C#CC(C)C(C)CC,2,4.2335864077192085,1482.3135,223.58,18.85,153.35,C8H14,"3,4-dimethyl-1-hexyne",---,186.6,Yaw
C#CC(C)CC(C)C,2,4.2335864077192085,1482.3135,223.58,18.85,153.35,C8H14,"3,5-dimethyl-1-hexyne",---,186.6,Yaw
CC#CC(C)(C)CC,2,4.2335864077192085,1482.3135,223.58,18.85,153.35,C8H14,"4,4-dimethyl-2-hexyne",---,186.6,Yaw
CC#CC(C)C(C)C,2,4.2335864077192085,1482.3135,223.58,18.85,153.35,C8H14,"4,5-dimethyl-2-hexyne",---,186.6,Yaw
CCC#CC(C)(C)C,2,4.2335864077192085,1482.3135,223.58,18.85,153.35,C8H14,"2,2-dimethyl-3-hexyne",4911-60-8,186.6,Yaw
C#CC(CC)CCC,2,4.533096407719208,1578.3601,221.634,24.45,151.32,C8H14,3-ethyl-1-hexyne,---,186.6,Yaw
C#CCC(CC)CC,2,4.533096407719208,1578.3601,221.634,24.45,151.32,C8H14,4-ethyl-1-hexyne,---,186.6,Yaw
C=CCCCCC=C,"1,2",4.736606407719209,1609.524,223.955,19.27,138.91,C8H14,"1,7-octadiene",3710-30-3,224.61,Yaw
CC=CCCC=CC,2,4.659156407719209,1621.4101,221.453,26.47,150.59,C8H14,"2,6-octadiene",4974-27-0,197.15,Yaw
C=CC(C)CC=CC,"1,2",4.774906407719208,1603.206,225.206,15.67,133.14,C8H14,"3-methyl-1,5-heptadiene",4894-62-6,216.15,Yaw
C=C(C)CCC(=C)C,"1,2",4.751466407719208,1608.9838,224.289,18.31,137.25,C8H14,"2,5-dimethyl-1,5-hexadiene",627-58-7,198.32,Yaw
CC(C)=CC=C(C)C,"1,2",4.827906407719208,1700.9278,218.462,13.65,157.28,C8H14,"2,5-dimethyl-2,4-hexadiene",764-13-6,286.8,Yaw
C1CC2CCCC2C1,3,4.308386407719208,1607.5755,231.575,24.85,169.58,C8H14,cis-octahydropentalene,1755-05-1,255.1481143115865,ML
C1C[C@H]2CCC[C@@H]2C1,3,4.391206407719209,1706.4554,247.055,24.85,170.15,C8H14,trans-octahydropentalene,5597-89-7,243.15,Yaw
C1=CCCCCCC1,3,5.023956407719209,2007.3903,258.012,-0.15,167.02,C8H14,cyclooctene,931-88-4,261.15,Yaw
CC12CCCCC1C2,3,3.1214464077192083,1112.9068,214.983,7.5,179.61,C8H14,1-methylbicyclo[4.1.0]-heptane,2439-79-4,228.99645812262577,ML
C1CC[C@H]2C[C@H]2CC1,3,5.048796407719209,2093.7479,273.15,23.85,167.85,C8H14,cis-bicyclo[5.1.0]octane,16526-90-2,266.9367718492105,ML
C=CCC(C)(C)C=C,3,3.1913564077192085,1323.4634,273.15,-12.22,184.74,C8H14,"3,3-dimethyl-1,5-hexadiene",24253-25-6,181.84085206849136,ML
C1CC[C@@H]2CC[C@@H]2C1,3,4.2409064077192085,1589.5306,233.257,24.85,170.19,C8H14,cis-bicyclo[4.2.0]octane,28282-35-1,223.0173851073395,ML
CCCC1C=CCC1,"1,2",4.039266407719208,1377.069,214.974,17.64,153.4,C8H14,3-propylcyclopentene,34067-75-9,174.04523153538275,ML
BrC1CCCCCCC1Br,3,14.83302640771921,13000.0,664.746,111.09,227.58,C8H14Br2,"1,2-dibromocyclooctane",29974-69-4,290.3382910793419,ML
CCNc1nc(Cl)nc(NC(C)C)n1,3,5.577996407719208,3473.494,273.15,192.54,385.09,C8H14ClN5,atrazine,1912-24-9,446.15,Yaw
ClCCSC1CCCCC1Cl,3,5.865186407719209,3265.5,273.15,148.42,313.73,C8H14Cl2S,(2-chloroethyl)(2-chlorocyclohexyl) sulfide,16660-53-0,291.1626952303414,ML
CC1(C)CCCCC1=O,2,4.1773964077192085,1598.2673,208.248,55.57,204.06,C8H14O,"2,2-dimethylcyclohexanone",1193-47-1,252.65,Yaw
C[C@H]1CCCC(=O)[C@H]1C,2,4.424836407719209,1684.941,206.441,60.77,202.15,C8H14O,"cis-2,3-dimethylcyclohexanone",1551-88-8,282.4,Yaw
C[C@@H]1C(=O)CCC[C@H]1C,2,4.131656407719209,1582.8659,208.757,54.51,204.46,C8H14O,"trans-2,3-dimethylcyclohexanone",1551-89-9,282.4,Yaw
C[C@H]1CCC(=O)[C@@H](C)C1,2,4.365746407719208,1664.2602,206.858,59.57,202.58,C8H14O,"cis-2,4-dimethylcyclohexanone",116783-29-0,282.4,Yaw
CC1CCC(C)C(=O)C1,2,4.1773964077192085,1598.2673,208.248,55.57,204.06,C8H14O,"trans-2,5-dimethylcyclohexanone, ()",66395-23-1,282.4,Yaw
CC1CCCC(C)C1=O,"1,2",4.263226407719209,1630.5314,207.414,57.97,204.11,C8H14O,"2,6-dimethylcyclohexanone",2816-57-1,282.4,Yaw
CC1(C)CCCC(=O)C1,2,4.485186407719208,1706.0526,206.024,61.97,201.72,C8H14O,"3,3-dimethylcyclohexanone",2979-19-3,282.4,Yaw
CC1CCC(=O)CC1C,"1,2",4.283366407719209,1674.4887,204.078,67.57,216.4,C8H14O,"3,4-dimethylcyclohexanone",5465-09-8,282.4,Yaw
CC1CC(=O)CC(C)C1,"1,2",4.370916407719209,1683.5865,205.329,63.97,208.34,C8H14O,"3,5-dimethylcyclohexanone",2320-30-1,282.4,Yaw
CC1(C)CCC(=O)CC1,2,4.131656407719209,1582.8659,208.757,54.51,204.46,C8H14O,"4,4-dimethylcyclohexanone",4255-62-3,312.15,Yaw
CCC(C)=C(C)C(C)=O,2,3.4415464077192084,1380.7921,211.862,47.57,227.81,C8H14O,"3,4-dimethyl-3-hexen-2-one",1635-02-5,206.25,Yaw
CC=C(C)C(C)C(C)=O,2,3.3134464077192085,1334.0007,213.252,43.57,229.58,C8H14O,"3,4-dimethyl-4-hexen-2-one",53252-21-4,206.25,Yaw
CC=CCC(C)C(C)=O,2,3.755646407719208,1495.1498,208.757,56.51,224.04,C8H14O,3-methyl-5-hepten-2-one,38552-72-6,206.25,Yaw
CC=C(C)CCC(C)=O,2,3.755646407719208,1495.1498,208.757,56.51,224.04,C8H14O,5-methyl-5-hepten-2-one,10339-67-0,206.25,Yaw
CC(=O)C=CCC(C)C,"1,2",4.3972964077192085,1694.287,206.302,63.57,207.32,C8H14O,6-methyl-3-hepten-2-one,2009-74-7,206.25,Yaw
CC(=O)CC=CC(C)C,2,3.549356407719209,1420.0992,210.75,50.77,226.43,C8H14O,6-methyl-4-hepten-2-one,39273-81-9,206.25,Yaw
CC(=O)CCC=C(C)C,2,3.549356407719209,1420.0992,210.75,50.77,226.43,C8H14O,6-methyl-5-hepten-2-one,110-93-0,206.25,Yaw
CC=CCC(=O)C(C)C,2,3.508346407719209,1405.1555,211.167,49.57,226.94,C8H14O,2-methyl-5-hepten-3-one,77958-21-5,206.25,Yaw
C=CC(=O)CC(C)CC,2,3.755646407719208,1495.1498,208.757,56.51,224.04,C8H14O,5-methyl-1-hepten-3-one,44829-76-7,206.25,Yaw
CCC(=O)C=C(C)CC,"1,2",4.384026407719209,1649.8284,209.777,53.57,194.3,C8H14O,5-methyl-4-hepten-3-one,1447-26-3,206.25,Yaw
CC=C(C)CC(=O)CC,2,3.755646407719208,1495.1498,208.757,56.51,224.04,C8H14O,5-methyl-5-hepten-3-one,1190-34-7,206.25,Yaw
CC=CC(=O)C(C)CC,2,3.780626407719208,1504.2248,208.526,57.17,223.77,C8H14O,5-methyl-2-hepten-4-one,81925-81-7,206.25,Yaw
CC=CC(=O)CC(C)C,2,3.750506407719208,1493.2806,208.804,56.37,224.1,C8H14O,6-methyl-2-hepten-4-one,49852-35-9,206.25,Yaw
CCC1CCC(=O)CC1,"1,2",4.282486407719208,1693.5536,202.41,72.37,222.95,C8H14O,4-ethylcyclohexanone,5441-51-0,282.4,Yaw
C=CCC(C)(O)CC=C,2,3.9317064077192088,1558.4474,212.029,56.09,217.22,C8H14O,"4-methyl-1,6-heptadien-4-ol",25201-40-5,296.80413392822817,ML
CCCCCC#CCO,3,5.115556407719208,2064.6641,199.255,96.0,230.0,C8H14O,2-octyn-1-ol,20739-58-6,255.15,Yaw
CCCCC#CCCO,3,5.115556407719208,2064.6641,199.255,96.0,230.0,C8H14O,3-octyn-1-ol,14916-80-4,234.15,Yaw
CCCC#CCCCO,3,5.115556407719208,2064.6641,199.255,96.0,230.0,C8H14O,4-octyn-1-ol,---,234.15,Yaw
CCC#CCCCCO,3,5.115556407719208,2064.6641,199.255,96.0,230.0,C8H14O,5-octyn-1-ol,---,234.15,Yaw
CC#CCCCCCO,3,5.115556407719208,2064.6641,199.255,96.0,230.0,C8H14O,6-octyn-1-ol,---,234.15,Yaw
C#CCCCCCCO,3,5.115556407719208,2064.6641,199.255,96.0,230.0,C8H14O,7-octyn-1-ol,---,234.15,Yaw
CCCCC#CC(C)O,3,5.115556407719208,2064.6641,199.255,96.0,230.0,C8H14O,3-octyn-2-ol,---,234.15,Yaw
CCCC#CCC(C)O,3,5.115556407719208,2064.6641,199.255,96.0,230.0,C8H14O,4-octyn-2-ol,---,234.15,Yaw
CCC#CCCC(C)O,3,5.115556407719208,2064.6641,199.255,96.0,230.0,C8H14O,5-octyn-2-ol,---,234.15,Yaw
CC#CCCCC(C)O,3,5.115556407719208,2064.6641,199.255,96.0,230.0,C8H14O,6-octyn-2-ol,---,234.15,Yaw
C#CCCCCC(C)O,3,5.115556407719208,2064.6641,199.255,96.0,230.0,C8H14O,7-octyn-2-ol,---,234.15,Yaw
C#CC(O)CCCCC,3,5.115556407719208,2064.6641,199.255,96.0,230.0,C8H14O,1-octyn-3-ol,818-72-4,213.15,Yaw
C#C[C@H](O)CCCCC,3,5.115556407719208,2064.6641,199.255,96.0,230.0,C8H14O,(R)-(+)-1-octyn-3-ol,32556-70-0,234.15,Yaw
CCCC#CC(O)CC,3,5.115556407719208,2064.6641,199.255,96.0,230.0,C8H14O,4-octyn-3-ol,---,234.15,Yaw
CCC#CCC(O)CC,3,5.115556407719208,2064.6641,199.255,96.0,230.0,C8H14O,5-octyn-3-ol,---,234.15,Yaw
CC#CCCC(O)CC,3,5.115556407719208,2064.6641,199.255,96.0,230.0,C8H14O,6-octyn-3-ol,---,234.15,Yaw
C#CCCCC(O)CC,3,5.115556407719208,2064.6641,199.255,96.0,230.0,C8H14O,7-octyn-3-ol,---,234.15,Yaw
C#CCC(O)CCCC,3,5.115556407719208,2064.6641,199.255,96.0,230.0,C8H14O,1-octyn-4-ol,---,234.15,Yaw
CC#CC(O)CCCC,3,5.115556407719208,2064.6641,199.255,96.0,230.0,C8H14O,2-octyn-4-ol,---,234.15,Yaw
CCC#CC(O)CCC,3,5.115556407719208,2064.6641,199.255,96.0,230.0,C8H14O,5-octyn-4-ol,---,234.15,Yaw
CC#CCC(O)CCC,3,5.115556407719208,2064.6641,199.255,96.0,230.0,C8H14O,6-octyn-4-ol,---,234.15,Yaw
C#CCCC(O)CCC,3,5.115556407719208,2064.6641,199.255,96.0,230.0,C8H14O,7-octyn-4-ol,---,234.15,Yaw
CCCC(C)C#CCO,3,5.115556407719208,2064.6641,199.255,96.0,230.0,C8H14O,4-methyl-2-heptyn-1-ol,---,234.15,Yaw
CCC(C)CC#CCO,3,5.115556407719208,2064.6641,199.255,96.0,230.0,C8H14O,5-methyl-2-heptyn-1-ol,---,234.15,Yaw
CC(C)CCC#CCO,3,5.115556407719208,2064.6641,199.255,96.0,230.0,C8H14O,6-methyl-2-heptyn-1-ol,---,234.15,Yaw
CCCC#CC(C)CO,3,5.115556407719208,2064.6641,199.255,96.0,230.0,C8H14O,2-methyl-3-heptyn-1-ol,---,234.15,Yaw
CCC(C)C#CCCO,3,5.115556407719208,2064.6641,199.255,96.0,230.0,C8H14O,5-methyl-3-heptyn-1-ol,---,234.15,Yaw
CC(C)CC#CCCO,3,5.115556407719208,2064.6641,199.255,96.0,230.0,C8H14O,6-methyl-3-heptyn-1-ol,---,234.15,Yaw
CCC#CCC(C)CO,3,5.115556407719208,2064.6641,199.255,96.0,230.0,C8H14O,2-methyl-4-heptyn-1-ol,---,234.15,Yaw
CCC#CC(C)CCO,3,5.115556407719208,2064.6641,199.255,96.0,230.0,C8H14O,3-methyl-4-heptyn-1-ol,---,234.15,Yaw
CC(C)C#CCCCO,3,5.115556407719208,2064.6641,199.255,96.0,230.0,C8H14O,6-methyl-4-heptyn-1-ol,---,234.15,Yaw
CC#CCCC(C)CO,3,5.115556407719208,2064.6641,199.255,96.0,230.0,C8H14O,2-methyl-5-heptyn-1-ol,---,234.15,Yaw
CC#CCC(C)CCO,3,5.115556407719208,2064.6641,199.255,96.0,230.0,C8H14O,3-methyl-5-heptyn-1-ol,---,234.15,Yaw
CC#CC(C)CCCO,3,5.115556407719208,2064.6641,199.255,96.0,230.0,C8H14O,4-methyl-5-heptyn-1-ol,---,234.15,Yaw
C#CCCCC(C)CO,3,5.115556407719208,2064.6641,199.255,96.0,230.0,C8H14O,2-methyl-6-heptyn-1-ol,---,234.15,Yaw
C#CCCC(C)CCO,3,5.115556407719208,2064.6641,199.255,96.0,230.0,C8H14O,3-methyl-6-heptyn-1-ol,---,234.15,Yaw
C#CCC(C)CCCO,3,5.115556407719208,2064.6641,199.255,96.0,230.0,C8H14O,4-methyl-6-heptyn-1-ol,---,234.15,Yaw
C#CC(C)CCCCO,3,5.115556407719208,2064.6641,199.255,96.0,230.0,C8H14O,5-methyl-6-heptyn-1-ol,---,234.15,Yaw
CCCC#CC(C)(C)O,3,5.115556407719208,2064.6641,199.255,96.0,230.0,C8H14O,2-methyl-3-heptyn-2-ol,---,234.15,Yaw
CCC#CCC(C)(C)O,3,5.115556407719208,2064.6641,199.255,96.0,230.0,C8H14O,2-methyl-4-heptyn-2-ol,---,234.15,Yaw
C#CCCCC(C)(C)O,3,5.115556407719208,2064.6641,199.255,96.0,230.0,C8H14O,2-methyl-6-heptyn-2-ol,---,234.15,Yaw
CCC#CC(C)(O)CC,3,5.115556407719208,2064.6641,199.255,96.0,230.0,C8H14O,3-methyl-4-heptyn-3-ol,---,234.15,Yaw
C#CCC(C)(O)CCC,3,5.115556407719208,2064.6641,199.255,96.0,230.0,C8H14O,4-methyl-1-heptyn-4-ol,---,234.15,Yaw
CC#CC(O)C(C)CC,3,5.115556407719208,2064.6641,199.255,96.0,230.0,C8H14O,5-methyl-2-heptyn-4-ol,---,234.15,Yaw
CC#CC(O)CC(C)C,3,5.115556407719208,2064.6641,199.255,96.0,230.0,C8H14O,6-methyl-2-heptyn-4-ol,---,234.15,Yaw
C#CC(C)(O)CC(C)C,"1,2",5.138296407719208,1874.2536,214.211,53.0,173.0,C8H14O,"3,5-dimethyl-1-hexyn-3-ol",107-54-0,234.15,Yaw
CC#CC(O)C(C)(C)C,3,5.115556407719208,2064.6641,199.255,96.0,230.0,C8H14O,"2,2-dimethyl-4-hexyn-3-ol",---,234.15,Yaw
CCCCCC=CC=O,"1,2",4.3572964077192085,1718.7642,204.356,71.17,219.37,C8H14O,2-octenal,2463-89-5,276.65,Yaw
CCCCC=CCC=O,2,4.578656407719208,1779.7527,204.356,71.17,211.7,C8H14O,3-octenal,---,276.65,Yaw
CCCC=CCCC=O,2,4.578656407719208,1779.7527,204.356,71.17,211.7,C8H14O,4-octenal,---,276.65,Yaw
CCC=CCCCC=O,2,4.578656407719208,1779.7527,204.356,71.17,211.7,C8H14O,5-octenal,---,276.65,Yaw
CC=CCCCCC=O,2,4.578656407719208,1779.7527,204.356,71.17,211.7,C8H14O,6-octenal,---,276.65,Yaw
C=CCCCCCC=O,2,4.1953664077192085,1642.429,207.136,63.17,214.61,C8H14O,7-octenal,21573-31-9,276.65,Yaw
CCCCC=C(C)C=O,2,4.1953664077192085,1642.429,207.136,63.17,214.61,C8H14O,2-methyl-2-heptenal,---,276.65,Yaw
CCCCC(C)=CC=O,2,4.1953664077192085,1642.429,207.136,63.17,214.61,C8H14O,3-methyl-2-heptenal,---,276.65,Yaw
CCCC(C)C=CC=O,2,4.1953664077192085,1642.429,207.136,63.17,214.61,C8H14O,4-methyl-2-heptenal,---,276.65,Yaw
CCC(C)CC=CC=O,2,4.1953664077192085,1642.429,207.136,63.17,214.61,C8H14O,5-methyl-2-heptenal,---,276.65,Yaw
CC(C)CCC=CC=O,2,4.1953664077192085,1642.429,207.136,63.17,214.61,C8H14O,6-methyl-2-heptenal,---,276.65,Yaw
CCCC=CC(C)C=O,2,4.1953664077192085,1642.429,207.136,63.17,214.61,C8H14O,2-methyl-3-heptenal,---,276.65,Yaw
CCCC=C(C)CC=O,2,4.1953664077192085,1642.429,207.136,63.17,214.61,C8H14O,3-methyl-3-heptenal,---,276.65,Yaw
CCCC(C)=CCC=O,2,4.1953664077192085,1642.429,207.136,63.17,214.61,C8H14O,4-methyl-3-heptenal,---,276.65,Yaw
CCC(C)C=CCC=O,2,4.1953664077192085,1642.429,207.136,63.17,214.61,C8H14O,5-methyl-3-heptenal,---,276.65,Yaw
CC(C)CC=CCC=O,2,4.1953664077192085,1642.429,207.136,63.17,214.61,C8H14O,6-methyl-3-heptenal,---,276.65,Yaw
CCC=CCC(C)C=O,2,4.1953664077192085,1642.429,207.136,63.17,214.61,C8H14O,2-methyl-4-heptenal,---,276.65,Yaw
CCC=CC(C)CC=O,2,4.1953664077192085,1642.429,207.136,63.17,214.61,C8H14O,3-methyl-4-heptenal,---,276.65,Yaw
CCC=C(C)CCC=O,2,4.1953664077192085,1642.429,207.136,63.17,214.61,C8H14O,4-methyl-4-heptenal,---,276.65,Yaw
CCC(C)=CCCC=O,2,4.1953664077192085,1642.429,207.136,63.17,214.61,C8H14O,5-methyl-4-heptenal,---,276.65,Yaw
CC(C)C=CCCC=O,2,4.1953664077192085,1642.429,207.136,63.17,214.61,C8H14O,6-methyl-4-heptenal,---,276.65,Yaw
CC=CCCC(C)C=O,2,4.1953664077192085,1642.429,207.136,63.17,214.61,C8H14O,2-methyl-5-heptenal,---,276.65,Yaw
CC=CCC(C)CC=O,2,4.1953664077192085,1642.429,207.136,63.17,214.61,C8H14O,3-methyl-5-heptenal,---,276.65,Yaw
CC=CC(C)CCC=O,2,4.1953664077192085,1642.429,207.136,63.17,214.61,C8H14O,4-methyl-5-heptenal,---,276.65,Yaw
CC=C(C)CCCC=O,2,4.1953664077192085,1642.429,207.136,63.17,214.61,C8H14O,5-methyl-5-heptenal,---,276.65,Yaw
CC(C)=CCCCC=O,2,4.1953664077192085,1642.429,207.136,63.17,214.61,C8H14O,6-methyl-5-heptenal,---,276.65,Yaw
C=CCCCC(C)C=O,2,4.1953664077192085,1642.429,207.136,63.17,214.61,C8H14O,2-methyl-6-heptenal,---,276.65,Yaw
C=CCCC(C)CC=O,2,4.1953664077192085,1642.429,207.136,63.17,214.61,C8H14O,3-methyl-6-heptenal,---,276.65,Yaw
C=CCC(C)CCC=O,2,4.1953664077192085,1642.429,207.136,63.17,214.61,C8H14O,4-methyl-6-heptenal,---,276.65,Yaw
C=CC(C)CCCC=O,2,4.1953664077192085,1642.429,207.136,63.17,214.61,C8H14O,5-methyl-6-heptenal,---,276.65,Yaw
C=C(C)CCCCC=O,2,4.1953664077192085,1642.429,207.136,63.17,214.61,C8H14O,6-methyl-6-heptenal,---,276.65,Yaw
CCCC(C)=C(C)C=O,2,3.859546407719209,1521.6913,209.916,55.17,217.7,C8H14O,"2,3-dimethyl-2-hexenal",---,276.65,Yaw
CCC(C)C=C(C)C=O,2,3.859546407719209,1521.6913,209.916,55.17,217.7,C8H14O,"2,4-dimethyl-2-hexenal",---,276.65,Yaw
CC(C=O)=CCC(C)C,2,3.859546407719209,1521.6913,209.916,55.17,217.7,C8H14O,"2,5-dimethyl-2-hexenal",---,276.65,Yaw
CCC=CC(C)(C)C=O,2,3.859546407719209,1521.6913,209.916,55.17,217.7,C8H14O,"2,2-dimethyl-3-hexenal",---,276.65,Yaw
CCC=C(C)C(C)C=O,2,3.859546407719209,1521.6913,209.916,55.17,217.7,C8H14O,"2,3-dimethyl-3-hexenal",---,276.65,Yaw
CCC(C)=CC(C)C=O,2,3.859546407719209,1521.6913,209.916,55.17,217.7,C8H14O,"2,4-dimethyl-3-hexenal",---,276.65,Yaw
CC(C)C=CC(C)C=O,2,3.859546407719209,1521.6913,209.916,55.17,217.7,C8H14O,"2,5-dimethyl-3-hexenal",---,276.65,Yaw