smiles,code,A [log10(atm)],B [C],C [C],TMIN [C],TMAX [C],FORMULA,NAME,CAS No,mp [K],mp_type
O=C(O)CCCCCF,3,10.42875640771921,4225.21,273.15,70.1,144.04,C6H11FO2,6-fluorohexanoic acid,373-05-7,268.2296579406488,ML
CCCCCC(F)(F)F,3,3.4213164077192086,1116.9332,228.55,-17.89,129.41,C6H11F3,"1,1,1-trifluorohexane",17337-12-1,181.757885599103,ML
CCCCC=CI,2,5.863586407719209,2111.8688,208.526,64.17,171.13,C6H11I,1-iodo-1-hexene,---,202.25305467510256,ML
CCCC/C=C\I,2,5.863586407719209,2111.8688,208.526,64.17,171.13,C6H11I,cis-1-iodo-1-hexene,16538-47-9,190.50038870462413,ML
CCCC/C=C/I,2,5.863586407719209,2111.8688,208.526,64.17,171.13,C6H11I,trans-1-iodo-1-hexene,16644-98-7,201.37734065905252,ML
C=C(I)CCCC,2,5.876576407719208,2116.2221,208.471,64.33,171.08,C6H11I,2-iodo-1-hexene,---,190.74605673307414,ML
C=CC(I)CCC,2,5.889616407719208,2120.5912,208.415,64.49,171.03,C6H11I,3-iodo-1-hexene,---,197.17996324143962,ML
C=CCC(I)CC,2,5.902706407719208,2124.9761,208.36,64.65,170.99,C6H11I,4-iodo-1-hexene,---,180.12393050502428,ML
C=CCCC(C)I,2,5.915846407719208,2129.3769,208.304,64.81,170.94,C6H11I,5-iodo-1-hexene,---,186.1669310193688,ML
C=CCCCCI,2,5.9290364077192095,2133.7937,208.248,64.97,170.89,C6H11I,6-iodo-1-hexene,---,195.33635546670817,ML
CCCC=CCI,2,5.942266407719208,2138.2266,208.193,65.13,170.84,C6H11I,1-iodo-2-hexene,---,209.8778762037814,ML
CCCC=C(C)I,2,5.955556407719209,2142.6756,208.137,65.29,170.79,C6H11I,2-iodo-2-hexene,---,215.23522166718033,ML
CC=C(I)CCC,2,5.968886407719209,2147.141,208.082,65.45,170.75,C6H11I,3-iodo-2-hexene,---,207.28748038655635,ML
CC=CC(I)CC,2,5.982276407719208,2151.6226,208.026,65.61,170.7,C6H11I,4-iodo-2-hexene,---,203.2663058620282,ML
CC=CCC(C)I,2,5.995706407719208,2156.1208,207.97,65.77,170.65,C6H11I,5-iodo-2-hexene,---,193.51444772106944,ML
CC=CCCCI,2,6.009186407719209,2160.6354,207.915,65.93,170.6,C6H11I,6-iodo-2-hexene,---,198.22927163621827,ML
CCCCCC(I)(I)I,2,12.99641640771921,5590.3884,161.622,214.15,278.73,C6H11I3,"1,1,1-triiodohexane",---,300.5270070814178,ML
CCCCCC#N,"1,2",4.3678764077192085,1626.743,210.584,49.75,189.42,C6H11N,hexanenitrile,628-73-9,192.85,Yaw
CCCC(C)C#N,"1,2",4.276666407719208,1549.6419,215.198,36.47,174.59,C6H11N,2-methylpentanenitrile,6339-13-5,240.35,Yaw
CCC(C#N)CC,"1,2",4.325356407719209,1555.4176,215.754,34.87,170.75,C6H11N,2-ethylbutanenitrile,617-80-1,240.35,Yaw
CCC(C)CC#N,"1,2",4.333806407719209,1583.486,213.53,41.27,179.12,C6H11N,3-methylpentanenitrile,21101-88-2,240.35,Yaw
CC(C)CCC#N,2,4.588586407719209,1651.7819,213.252,42.07,172.0,C6H11N,4-methylpentanenitrile,542-54-1,222.05,Yaw
CCC(C)(C)C#N,2,3.655476407719209,1341.2886,220.202,22.07,179.65,C6H11N,"2,2-dimethylbutanenitrile",20654-46-0,240.35,Yaw
CC(C)C(C)C#N,2,3.624336407719209,1330.8715,220.48,21.27,179.99,C6H11N,"2,3-dimethylbutanenitrile",20654-44-8,240.35,Yaw
CC(C)(C)CC#N,2,3.867116407719209,1411.4212,218.256,27.3,177.53,C6H11N,"3,3-dimethylbutanenitrile",3302-16-7,306.15,Yaw
C=CCNCC=C,"1,2",4.647216407719209,1562.6554,225.206,14.17,134.34,C6H11N,N-allyl-2-propen-1-amine,124-02-7,184.75,Yaw
[C-]#[N+]CCCCC,3,5.094286407719209,1831.6993,212.835,49.77,169.31,C6H11N,1-isocyanopentane,18971-59-0,222.05,Yaw
O=C1CCCCCN1,3,8.15745640771921,3209.131,181.499,138.19,226.97,C6H11NO,epsilon-caprolactam,105-60-2,342.36,Yaw
ON=C1CCCCC1,"1,2",4.527416407719208,1820.8016,194.123,90.0,236.7,C6H11NO,cyclohexanone oxime,100-64-1,363.15,Yaw
CC(C)CCN=C=O,2,4.225336407719209,1562.8586,217.978,37.97,180.27,C6H11NO,1-isocyanato-3-methylbutane,1611-65-0,278.4977853633498,ML
CCCCCN=C=O,2,4.206256407719208,1556.3873,218.117,37.57,180.42,C6H11NO,pentyl isocyanate,3954-13-0,275.76372994116576,ML
CCC1(C)CC1,2,4.234836407719208,1290.819,240.282,-29.21,87.85,C6H12,1-methyl-1-ethylcyclopropane,53778-43-1,142.95,Yaw
CC[C@H]1C[C@H]1C,"1,2",4.623696407719208,1407.6645,237.436,-21.02,88.21,C6H12,1-methyl-cis-2-ethylcyclopropane,19781-68-1,146.05,Yaw
CC[C@@H]1C[C@H]1C,"1,2",4.602726407719208,1374.8662,239.757,-27.7,79.85,C6H12,1-methyl-trans-2-ethylcyclopropane,19781-69-2,146.05,Yaw
CC1CC1(C)C,"1,2",4.591816407719208,1351.5368,241.486,-32.68,73.5,C6H12,"1,1,2-trimethylcyclopropane",4127-45-1,134.97,Yaw
CCCC1CC1,"1,2",4.625076407719209,1415.2308,236.841,-19.31,90.45,C6H12,propylcyclopropane,2415-72-7,146.05,Yaw
CC(C)C1CC1,"1,2",4.611006407719208,1375.47,239.851,-27.97,79.28,C6H12,isopropylcyclopropane,3638-35-5,160.22,Yaw
CC1(C)CCC1,2,4.011826407719209,1223.7026,240.496,-32.83,89.27,C6H12,"1,1-dimethylcyclobutane",18931-71-0,140.53,Yaw
CCC1CCC1,"1,2",4.410846407719209,1354.5156,236.438,-21.15,93.14,C6H12,ethylcyclobutane,4806-61-5,130.4,Yaw
CC1CCCC1,"1,2",4.181176407719208,1304.0792,240.043,-24.92,96.05,C6H12,methylcyclopentane,96-37-7,130.73,Yaw
C=CCCCC,"1,2",4.174866407719208,1266.9812,239.628,-30.41,87.43,C6H12,1-hexene,592-41-6,133.39,Yaw
CC=CCCC,"1,2",4.452456407719208,1358.0448,237.16,-22.73,89.97,C6H12,2-hexene,592-43-8,175.25,Yaw
CCC=CCC,"1,2",4.4438664077192085,1352.2408,237.494,-23.69,88.91,C6H12,hex-3-ene,592-47-2,183.25,Yaw
CC/C=C\CC,"1,2",4.190596407719209,1279.5243,238.882,-28.14,90.08,C6H12,cis-3-hexene,7642-09-3,135.33,Yaw
C=C(C)CCC,"1,2",4.086676407719208,1218.09,235.963,-31.84,85.8,C6H12,2-methyl-1-pentene,763-29-1,137.42,Yaw
C=CC(C)CC,"1,2",4.190726407719208,1245.5367,243.032,-37.89,77.18,C6H12,3-methyl-1-pentene,760-20-3,120.2,Yaw
C=CCC(C)C,"1,2",4.122336407719208,1215.1496,240.912,-38.49,77.08,C6H12,4-methyl-1-pentene,691-37-2,119.51,Yaw
CC=CC(C)C,"1,2",4.433786407719209,1318.4416,240.163,-31.37,78.86,C6H12,4-methyl-2-pentene,4461-48-7,146.05,Yaw
CCC=C(C)C,"1,2",4.105786407719209,1245.7215,236.107,-28.02,91.31,C6H12,2-methyl-2-pentene,625-27-4,138.07,Yaw
CC=C(C)CC,"1,2",4.444996407719208,1356.1142,237.188,-22.81,90.06,C6H12,3-methyl-2-pentene,922-61-2,143.92,Yaw
C=C(C)C(C)C,"1,2",4.115186407719209,1225.8374,242.271,-37.83,79.12,C6H12,"2,3-dimethyl-1-butene",563-78-0,115.89,Yaw
CC(C)=C(C)C,"1,2",4.007216407719208,1197.5694,225.653,-22.26,97.47,C6H12,"2,3-dimethyl-2-butene",563-79-1,198.92,Yaw
C=CC(C)(C)C,"1,2",4.035676407719208,1115.9799,235.289,-46.67,63.53,C6H12,"3,3-dimethyl-1-butene",558-37-2,157.95,Yaw
C=C(CC)CC,"1,2",4.084966407719208,1233.988,237.411,-30.57,88.7,C6H12,2-ethyl-1-butene,760-21-4,141.61,Yaw
ClCCOB(OCCCl)OCCCl,3,5.533586407719209,3012.0,273.15,116.85,302.48,C6H12BCl3O3,tris(2-chloroethyl)borate,22238-19-3,278.43117488625677,ML
CCCCCC(Br)Br,2,4.483206407719209,1825.6998,199.908,86.97,236.63,C6H12Br2,"1,1-dibromohexane",58133-26-9,258.7141311653168,ML
CCCCC(Br)CBr,2,4.521416407719209,1840.004,199.63,87.77,236.35,C6H12Br2,"1,2-dibromohexane",624-20-4,261.3915658782101,ML
CCCC(Br)CCBr,2,4.560146407719208,1854.4963,199.352,88.57,236.07,C6H12Br2,"1,3-dibromohexane",---,260.7365911040336,ML
CCC(Br)CCCBr,2,4.599396407719208,1869.1806,199.074,89.37,235.78,C6H12Br2,"1,4-dibromohexane",25118-28-9,257.7439655435533,ML
CC(Br)CCCCBr,2,4.639186407719208,1884.0608,198.796,90.17,235.5,C6H12Br2,"1,5-dibromohexane",627-96-3,257.87821600725005,ML
BrCCCCCCBr,"1,2",3.581356407719209,1581.2341,198.518,90.97,283.52,C6H12Br2,"1,6-dibromohexane",629-03-8,271.95,Yaw
CCCCC(C)(Br)Br,2,4.127286407719208,1692.231,202.688,78.97,239.58,C6H12Br2,"2,2-dibromohexane",116530-77-9,251.92934275642588,ML
CCCC(Br)C(C)Br,2,4.264196407719209,1743.6233,201.576,82.17,238.38,C6H12Br2,"2,3-dibromohexane",6423-02-5,252.23878839286647,ML
CCC(Br)CC(C)Br,2,4.299526407719209,1756.8736,201.298,82.97,238.09,C6H12Br2,"2,4-dibromohexane",---,250.5505978425928,ML
CC(Br)CCC(C)Br,"1,2",4.692896407719209,1906.4435,198.24,91.77,235.84,C6H12Br2,"2,5-dibromohexane",24774-58-1,311.15,Yaw
CCC(Br)C(Br)CC,2,4.720416407719209,1914.4251,198.24,91.77,234.95,C6H12Br2,"3,4-dibromohexane",16230-28-7,250.34185025468892,ML
CC(C)C(C)(Br)CBr,2,4.521416407719209,1840.004,199.63,87.77,236.35,C6H12Br2,"1,2-dibromo-2,3-dimethylbutane",29916-45-8,256.77815694498764,ML
CC(C)(C)C(Br)CBr,2,4.521416407719209,1840.004,199.63,87.77,236.35,C6H12Br2,"1,2-dibromo-3,3-dimethylbutane",640-21-1,270.60992237978735,ML
CC(CBr)C(C)CBr,2,4.521416407719209,1840.004,199.63,87.77,236.35,C6H12Br2,"1,4-dibromo-2,3-dimethylbutane",54462-70-3,259.5421178388144,ML
CC(CCBr)CCBr,"1,2",3.722006407719209,1610.251,199.63,87.77,271.07,C6H12Br2,"1,5-dibromo-3-methylpentane",4457-72-1,259.62935958539515,ML
FCCCCCCCl,2,5.050036407719209,1865.3027,209.36,59.77,183.42,C6H12ClF,1-chloro-6-fluorohexane,1550-09-0,216.61820682768555,ML
ClCCN1CCOCC1,3,6.038896407719209,2808.7,273.15,81.5,216.35,C6H12ClNO,4-(2-chloroethyl)morpholine,3240-94-6,277.79178969091396,ML
CCCCCC(Cl)Cl,2,4.508516407719209,1738.1667,210.472,61.57,202.64,C6H12Cl2,"1,1-dichlorohexane",62017-16-7,225.13,Yaw
CCCCC(Cl)CCl,2,4.897056407719209,1875.7092,207.97,68.77,200.15,C6H12Cl2,"1,2-dichlorohexane",2162-92-7,225.13,Yaw
CCCC(Cl)CCCl,2,4.947646407719208,1884.0824,205.746,70.17,199.73,C6H12Cl2,"1,3-dichlorohexane",56375-88-3,225.13,Yaw
CCC(Cl)CCCCl,2,5.348906407719209,2024.9878,203.522,76.57,197.63,C6H12Cl2,"1,4-dichlorohexane",50636-35-3,225.13,Yaw
CC(Cl)CCCCCl,2,5.805936407719209,2185.0994,201.298,82.97,195.64,C6H12Cl2,"1,5-dichlorohexane",---,225.13,Yaw
ClCCCCCCCl,"1,2",4.986716407719209,2011.6522,199.352,93.57,229.97,C6H12Cl2,"1,6-dichlorohexane",2163-00-0,225.13,Yaw
CCCCC(C)(Cl)Cl,2,4.634676407719208,1773.9214,207.692,64.57,201.64,C6H12Cl2,"2,2-dichlorohexane",42131-89-5,225.13,Yaw
CCCC(Cl)C(C)Cl,2,4.488366407719209,1731.024,210.611,61.17,202.78,C6H12Cl2,"2,3-dichlorohexane",54305-87-2,225.13,Yaw
CCC(Cl)CC(C)Cl,2,4.530446407719209,1737.1787,208.387,62.57,202.35,C6H12Cl2,"2,4-dichlorohexane",---,225.13,Yaw
CC(Cl)CCC(C)Cl,2,4.877796407719209,1859.5186,206.163,68.97,200.13,C6H12Cl2,"2,5-dichlorohexane",---,225.13,Yaw
C[C@H](Cl)CC[C@@H](C)Cl,2,4.7648364077192085,1819.7658,206.858,66.97,200.81,C6H12Cl2,"2,5-dichlorohexane, (R*,S*)-",41761-11-9,225.13,Yaw
CC(C)(C)CC(Cl)Cl,"1,2",5.043766407719208,1825.7641,214.934,48.73,170.03,C6H12Cl2,"1,1-dichloro-3,3-dimethylbutane",6130-96-7,215.1,Yaw
CC(C)(C)C(C)(Cl)Cl,2,3.7044664077192087,1444.7118,214.934,43.73,209.55,C6H12Cl2,"2,2-dichloro-3,3-dimethylbutane",594-84-3,225.13,Yaw
CC(CCl)OC(C)CCl,3,3.1756064077192088,1461.9468,218.157,70.97,290.42,C6H12Cl2O,"2,2'-dichlorodiisopropyl ether",108-60-1,251.40476266325655,ML
CC(OCCCl)OCCCl,3,3.416496407719209,1724.1992,237.03,55.85,316.4,C6H12Cl2O2,"1,1-bis(2-chloroethoxy)ethane",14689-97-5,265.92484319749207,ML
O=P(OCCCl)(OCCCl)OCCCl,3,3.1783164077192083,1917.0,273.15,105.77,393.1,C6H12Cl3O4P,tris(2-chloroethyl) phosphate,115-96-8,275.19151993776796,ML
CN(C)C1=[S][Cu+2]2([S]=C(N(C)C)[S-]2)[S-]1,3,11.178186407719208,7698.0,273.15,316.33,434.57,C6H12CuN2S4,copper dimethyldithiocarbamate,137-29-1,499.6207535914462,ML
CCCCCC(F)F,3,4.000456407719208,1388.1217,229.654,6.37,145.57,C6H12F2,"1,1-difluorohexane",62127-41-7,183.51889400928886,ML
CCCCC(F)CF,3,4.038416407719208,1400.1715,229.376,7.17,145.26,C6H12F2,"1,2-difluorohexane",---,188.1204040457212,ML
CCCC(F)CCF,3,4.0769364077192085,1412.3926,229.098,7.97,144.96,C6H12F2,"1,3-difluorohexane",---,188.27169262299802,ML
CCC(F)CCCF,3,4.116016407719209,1424.7887,228.82,8.77,144.65,C6H12F2,"1,4-difluorohexane",---,188.86476993636947,ML
CC(F)CCCCF,3,4.155686407719209,1437.3639,228.542,9.57,144.35,C6H12F2,"1,5-difluorohexane",---,189.37984342554327,ML
FCCCCCCF,3,4.195936407719208,1450.122,228.264,10.37,144.05,C6H12F2,"1,6-difluorohexane",---,198.83847842041519,ML
CCCCC(C)(F)F,3,3.648916407719208,1276.2849,232.434,-1.63,148.79,C6H12F2,"2,2-difluorohexane",---,179.56486690241968,ML
CCCC(F)C(C)F,3,3.681926407719208,1286.8079,232.156,-0.83,148.46,C6H12F2,"2,3-difluorohexane",---,180.9940157974971,ML
CCC(F)CC(C)F,3,3.715386407719208,1297.4698,231.878,-0.03,148.13,C6H12F2,"2,4-difluorohexane",---,185.3592379444135,ML
CC(F)CCC(C)F,3,3.749306407719208,1308.2733,231.6,0.77,147.8,C6H12F2,"2,5-difluorohexane",---,184.0307027127126,ML
CC(C)(C)CC(F)F,3,3.818566407719208,1330.3171,231.044,2.37,147.15,C6H12F2,"1,1-difluoro-3,3-dimethylbutane",---,189.6492727171154,ML
CC(C)(C)C(C)(F)F,3,3.4902964077192085,1225.6569,233.824,-5.63,150.48,C6H12F2,"2,2-difluoro-3,3-dimethylbutane",---,196.4677643563954,ML
CCCCCC(I)I,2,4.085156407719209,1914.4885,184.452,136.45,321.47,C6H12I2,"1,1-diiodohexane",66225-50-1,282.65,Yaw
CCCCC(I)CI,2,4.143316407719209,1939.4415,183.896,138.05,320.87,C6H12I2,"1,2-diiodohexane",---,282.65,Yaw
CCCC(I)CCI,2,4.202766407719209,1964.9319,183.34,139.65,320.27,C6H12I2,"1,3-diiodohexane",---,282.65,Yaw
CCC(I)CCCI,2,4.2635464077192085,1990.9776,182.784,141.25,319.67,C6H12I2,"1,4-diiodohexane",---,282.65,Yaw
CC(I)CCCCI,2,4.325696407719208,2017.5976,182.228,142.85,319.08,C6H12I2,"1,5-diiodohexane",---,282.65,Yaw
ICCCCCCI,2,3.812276407719208,1797.2034,187.232,128.45,324.61,C6H12I2,"1,6-diiodohexane",629-09-4,282.65,Yaw
CCCCC(C)(I)I,2,3.8645864077192087,1819.7148,186.676,130.05,323.97,C6H12I2,"2,2-diiodohexane",---,282.65,Yaw
CCCC(I)C(C)I,2,3.917996407719208,1842.6842,186.12,131.65,323.34,C6H12I2,"2,3-diiodohexane",---,282.65,Yaw
CCC(I)CC(C)I,2,3.972536407719209,1866.126,185.564,133.25,322.71,C6H12I2,"2,4-diiodohexane",---,282.65,Yaw
CC(I)CCC(C)I,2,4.028236407719208,1890.0555,185.008,134.85,322.09,C6H12I2,"2,5-diiodohexane",---,282.65,Yaw
CC(C)(C)CC(I)I,2,3.566066407719209,1691.0454,190.012,120.45,327.91,C6H12I2,"1,1-diiodo-3,3-dimethylbutane",---,282.65,Yaw
CC(C)(C)C(C)(I)I,2,3.6133664077192087,1711.4659,189.456,122.05,327.24,C6H12I2,"2,2-diiodo-3,3-dimethylbutane",---,282.65,Yaw
CN(C)C1=[S][Ni+2]2([S]=C(N(C)C)[S-]2)[S-]1,3,9.59218640771921,7307.0,273.15,363.74,513.3,C6H12N2NiS4,bis(dimethyldithio-carbamate)nickel,15521-65-0,480.75608186479093,ML
O=[N+]([O-])CCCCCC[N+](=O)[O-],3,5.154906407719208,2275.4596,183.645,139.77,285.15,C6H12N2O4,"1,6-dinitrohexane",4286-47-9,310.65,Yaw
C=COCCCC,"1,2",4.709126407719209,1524.9662,229.982,1.43,115.96,C6H12O,butyl vinyl ether,111-34-2,181.15,Yaw
C=COC(C)CC,2,3.9698564077192087,1314.741,233.546,-8.83,124.81,C6H12O,sec-butyl vinyl ether,1888-85-3,167.82,Yaw
C=COC(C)(C)C,2,3.745656407719209,1246.7365,235.214,-13.63,126.72,C6H12O,tert-butyl vinyl ether,926-02-3,161.15,Yaw
C=COCC(C)C,"1,2",4.703286407719209,1486.4293,232.99,-7.23,104.66,C6H12O,isobutyl vinyl ether,109-53-5,161.15,Yaw
C=CCOC(C)C,"1,2",4.703516407719208,1488.1991,232.851,-6.83,105.18,C6H12O,3-(1-methylethoxy)-1-propene,6140-80-3,167.82,Yaw
C=CCOCCC,"1,2",4.706866407719208,1514.7478,230.766,-0.83,113.04,C6H12O,3-propoxy-1-propene,1471-03-0,167.82,Yaw
CC1(O)CCCC1,"1,2",5.322516407719208,1883.1401,218.256,43.17,156.76,C6H12O,1-methylcyclopentanol,1462-03-9,306.0,Yaw
CC1CCCC1O,2,5.066786407719209,1861.6191,214.781,53.17,175.84,C6H12O,cis-2-methylcyclopentanol,25144-05-2,290.78,Yaw
CC1CCC(O)C1,2,5.066786407719209,1861.6191,214.781,53.17,175.84,C6H12O,3-methylcyclopentanol,18729-48-1,272.4,Yaw
OC1CCCCC1,"1,2",4.3119464077192085,1415.2661,168.37,60.17,184.48,C6H12O,cyclohexanol,108-93-0,296.6,Yaw
CCCCCC=O,"1,2",4.284286407719208,1471.3075,214.57,24.08,154.8,C6H12O,hexanal,66-25-1,217.15,Yaw
CCCC(C)C=O,"1,2",4.731766407719209,1616.6855,223.816,20.67,141.06,C6H12O,2-methylpentanal,123-15-9,200.65,Yaw
CCC(C)CC=O,2,5.108166407719208,1734.2469,221.87,26.27,138.89,C6H12O,3-methylpentanal,15877-57-3,200.65,Yaw
CC(C)CCC=O,2,4.847526407719209,1652.3625,223.233,22.35,140.2,C6H12O,4-methylpentanal,1119-16-0,200.65,Yaw
CCC(C=O)CC,"1,2",4.831356407719209,1644.5378,223.538,21.47,139.47,C6H12O,2-ethylbutanal,97-96-1,184.15,Yaw
CCC(C)(C)C=O,"1,2",4.8738364077192085,1609.1082,227.152,11.07,124.73,C6H12O,"2,2-dimethylbutanal",2094-75-9,200.65,Yaw
CC(C)C(C)C=O,2,4.496706407719208,1541.905,225.262,16.51,142.24,C6H12O,"2,3-dimethylbutanal",2109-98-0,200.65,Yaw
CC(C)(C)CC=O,2,4.496706407719208,1541.905,225.262,16.51,142.24,C6H12O,"3,3-dimethylbutanal",2987-16-8,200.65,Yaw
CCCCC(C)=O,"1,2",4.017036407719209,1228.1613,178.888,29.35,151.62,C6H12O,2-hexanone,591-78-6,217.35,Yaw
CCCC(=O)CC,"1,2",4.524536407719209,1559.0702,221.731,21.67,147.41,C6H12O,3-hexanone,589-38-8,217.5,Yaw
CCC(C)C(C)=O,"1,2",4.515326407719209,1536.4623,223.427,16.79,141.16,C6H12O,3-methyl-2-pentanone,565-61-7,167.15,Yaw
CC(=O)CC(C)C,"1,2",4.496196407719209,1527.2068,223.816,15.67,140.22,C6H12O,4-methyl-2-pentanone,108-10-1,189.15,Yaw
CCC1CCCO1,"1,2",4.570516407719208,1511.7562,225.762,8.57,128.32,C6H12O,2-ethyltetrahydrofuran,1003-30-1,159.15,Yaw
CCC1CCOC1,2,4.789056407719209,1587.3385,223.816,14.17,129.87,C6H12O,3-ethyltetrahydrofuran,93716-28-0,159.15,Yaw
CC1(C)CCCO1,"1,2",4.379496407719208,1412.0914,230.433,-4.87,115.8,C6H12O,"2,2-dimethyltetrahydrofuran",1003-17-4,158.69,Yaw
CC1CCOC1C,2,3.9417964077192087,1327.4962,229.14,-1.15,135.48,C6H12O,"2,3-dimethyltetrahydrofuran",---,159.15,Yaw
CC1COC(C)C1,2,3.970456407719209,1336.323,228.932,-0.55,135.25,C6H12O,"2,4-dimethyltetrahydrofuran",64265-26-5,159.15,Yaw
CC1CCC(C)O1,"1,2",4.355106407719209,1407.5679,230.349,-4.63,116.85,C6H12O,"2,5-dimethyltetrahydrofuran",1003-38-9,144.25,Yaw
CC1(C)CCOC1,2,4.024836407719208,1353.0566,228.542,0.57,134.81,C6H12O,"3,3-dimethyltetrahydrofuran",15833-75-7,159.15,Yaw
CC1COCC1C,"1,2",4.387966407719208,1467.341,225.901,8.17,133.13,C6H12O,"3,4-dimethyltetrahydrofuran",32970-37-9,159.15,Yaw
CC(=O)C(C)(C)C,"1,2",4.501796407719208,1496.2296,226.513,7.91,129.67,C6H12O,"3,3-dimethyl-2-butanone",75-97-8,221.15,Yaw
CCC(=O)C(C)C,"1,2",4.423036407719208,1501.1296,224.539,13.59,139.64,C6H12O,ethyl isopropyl ketone,565-69-5,204.15,Yaw
CCCC=CCO,2,5.255536407719209,1915.6262,211.862,56.57,174.78,C6H12O,2-hexen-1-ol,2305-21-7,226.55,Yaw
CCC=CCCO,2,5.123316407719209,1870.9953,212.557,54.57,175.43,C6H12O,3-hexen-1-ol,544-12-7,295.7,Yaw
CC=CCCCO,2,5.282636407719208,1924.7721,211.723,56.97,174.65,C6H12O,4-hexen-1-ol,6126-50-7,295.7,Yaw
C=CCCCCO,"1,2",5.662116407719209,2000.0924,213.391,22.55,159.68,C6H12O,5-hexen-1-ol,821-41-0,295.7,Yaw
CCC=CC(C)O,2,4.4909064077192085,1656.2734,216.171,22.55,179.13,C6H12O,1-methyl-2-penten-1-ol,4325-82-0,295.7,Yaw
CCC=C(C)CO,2,4.4909064077192085,1656.2734,216.171,22.55,179.13,C6H12O,2-methyl-2-penten-1-ol,1610-29-3,295.7,Yaw
CCC(C)=CCO,2,4.514406407719209,1664.9396,216.171,44.17,178.98,C6H12O,3-methyl-2-penten-1-ol,---,295.7,Yaw
CC(C)C=CCO,2,4.4909064077192085,1656.2734,216.171,22.55,179.13,C6H12O,4-methyl-2-penten-1-ol,5362-55-0,295.7,Yaw
CC=CCC(C)O,2,4.4909064077192085,1656.2734,216.171,22.55,179.13,C6H12O,1-methyl-3-penten-1-ol,52387-50-5,295.7,Yaw
CC=CC(C)(C)O,2,4.4909064077192085,1656.2734,216.171,22.55,179.13,C6H12O,2-methyl-3-penten-1-ol,63468-05-3,295.7,Yaw
CC=C(C)CCO,2,4.4909064077192085,1656.2734,216.171,22.55,179.13,C6H12O,3-methyl-3-penten-1-ol,2747-53-7,295.7,Yaw
CC(C)=CCCO,"1,2",4.902426407719209,1811.0449,212.418,22.55,181.17,C6H12O,4-methyl-3-penten-1-ol,763-89-3,295.7,Yaw
C=CCCC(C)O,2,4.4909064077192085,1656.2734,216.171,22.55,179.13,C6H12O,1-methyl-4-penten-1-ol,626-94-8,295.7,Yaw
C=CCC(C)CO,2,4.514406407719209,1664.9396,216.171,44.17,178.98,C6H12O,2-methyl-4-penten-1-ol,---,295.7,Yaw
C=CC(O)C(C)C,2,4.514406407719209,1664.9396,216.171,44.17,178.98,C6H12O,2-methyl-4-penten-3-ol,4798-45-2,295.7,Yaw
C=CC(C)CCO,2,4.514406407719209,1664.9396,216.171,44.17,178.98,C6H12O,3-methyl-4-penten-1-ol,---,295.7,Yaw
C=C(C)CCCO,2,4.514406407719209,1664.9396,216.171,44.17,178.98,C6H12O,4-methyl-4-penten-1-ol,---,295.7,Yaw
C=C(C)CC(C)O,2,4.099466407719208,1523.3058,218.951,22.55,182.08,C6H12O,4-methyl-4-penten-2-ol,2004-67-3,295.7,Yaw
C=CC(C)(O)CC,"1,2",4.899286407719209,1670.4091,223.399,22.55,139.87,C6H12O,3-methyl-1-penten-3-ol,918-85-4,295.7,Yaw
C=CC(O)CCC,2,4.136186407719209,1535.7989,218.673,22.55,181.78,C6H12O,1-hexen-3-ol,4798-44-1,295.7,Yaw
CC=CC(O)CC,"1,2",4.9299064077192085,1743.7826,218.465,37.57,158.25,C6H12O,4-hexen-3-ol,4798-58-7,295.7,Yaw
CCCCCC(=O)O,"1,2",4.673086407719208,1769.4739,174.802,95.19,229.92,C6H12O2,hexanoic acid,142-62-1,269.25,Yaw
CCCC(C)C(=O)O,"1,2",4.922456407719209,1945.7859,201.437,84.57,219.6,C6H12O2,2-methylpentanoic acid,97-61-0,188.15,Yaw
CCC(C)CC(=O)O,"1,2",4.858366407719209,1930.9089,201.59,84.93,222.1,C6H12O2,3-methylpentanoic acid,105-43-1,231.15,Yaw