smiles,code,A [log10(atm)],B [C],C [C],TMIN [C],TMAX [C],FORMULA,NAME,CAS No,mp [K],mp_type
Cc1ccc(CC(C)C)cc1,"1,2",4.196176407719209,1669.0729,201.76,72.89,226.74,C11H16,1-methyl-4-isobutylbenzene,5161-04-6,228.43,Yaw
Cc1ccccc1C(C)(C)C,"1,2",4.079136407719209,1637.2211,200.915,73.79,232.43,C11H16,1-methyl-2-tert-butyl benzene,1074-92-6,222.83,Yaw
Cc1cccc(C(C)(C)C)c1,"1,2",4.081986407719208,1601.3649,203.041,65.52,220.49,C11H16,1-methyl-3-tert-butylbenzene,1075-38-3,231.78,Yaw
Cc1ccc(C(C)(C)C)cc1,"1,2",4.065176407719209,1596.7666,200.031,68.51,224.17,C11H16,1-methyl-4-tert-butylbenzene,98-51-1,220.64,Yaw
CCCc1ccccc1CC,"1,2",4.250276407719209,1714.6904,200.43,79.24,233.75,C11H16,1-ethyl-2-propylbenzene,16021-20-8,228.43,Yaw
CCCc1cccc(CC)c1,"1,2",4.2508064077192085,1708.0167,200.81,77.75,231.62,C11H16,1-ethyl-3-propylbenzene,20024-91-3,228.43,Yaw
CCCc1ccc(CC)cc1,"1,2",4.249756407719208,1721.3642,200.05,80.73,235.88,C11H16,1-ethyl-4-propylbenzene,20024-90-2,228.43,Yaw
CCc1ccccc1C(C)C,"1,2",4.165976407719208,1649.3113,202.9,69.86,223.84,C11H16,1-ethyl-2-isopropylbenzene,18970-44-0,228.43,Yaw
CCc1cccc(C(C)C)c1,"1,2",4.197246407719208,1655.8984,202.52,69.92,222.48,C11H16,1-ethyl-3-isopropylbenzene,4920-99-4,228.43,Yaw
CCc1ccc(C(C)C)cc1,"1,2",4.196016407719209,1671.0491,201.646,73.34,227.38,C11H16,1-ethyl-4-isopropylbenzene,4218-48-8,228.43,Yaw
CCCc1cccc(C)c1C,"1,2",4.240176407719209,1737.063,198.967,84.82,242.01,C11H16,"1,2-dimethyl-3-propylbenzene",17059-44-8,228.43,Yaw
CCCc1ccc(C)c(C)c1,"1,2",4.240636407719209,1731.0681,199.309,83.48,240.09,C11H16,"1,2-dimethyl-4-propylbenzene",3982-66-9,253.15,Yaw
CCCc1c(C)cccc1C,"1,2",4.2409764077192085,1726.7385,199.556,82.51,238.71,C11H16,"1,3-dimethyl-2-propylbenzene",17059-45-9,228.43,Yaw
CCCc1ccc(C)cc1C,"1,2",4.241226407719209,1723.408,199.746,81.76,237.64,C11H16,"1,3-dimethyl-4-propylbenzene",61827-85-8,228.43,Yaw
CCCc1cc(C)cc(C)c1,"1,2",4.242366407719208,1708.8875,200.575,78.51,233.01,C11H16,"1,3-dimethyl-5-propylbenzene",3982-64-7,214.05,Yaw
CCCc1cc(C)ccc1C,"1,2",4.241826407719208,1715.7481,200.183,80.05,235.2,C11H16,"1,4-dimethyl-2-propylbenzene",3042-50-0,228.43,Yaw
Cc1cccc(C(C)C)c1C,"1,2",4.186466407719209,1687.5921,200.506,77.64,233.83,C11H16,"1,2-dimethyl-3-isopropylbenzene",22539-65-7,228.43,Yaw
Cc1ccc(C(C)C)cc1C,"1,2",4.186676407719209,1684.9622,200.658,77.05,232.98,C11H16,"1,2-dimethyl-4-isopropylbenzene",4132-77-8,228.43,Yaw
Cc1cccc(C)c1C(C)C,"1,2",4.187406407719209,1675.7577,201.19,74.96,230.0,C11H16,"1,3-dimethyl-2-isopropylbenzene",14411-75-7,228.43,Yaw
Cc1ccc(C(C)C)c(C)c1,"1,2",4.187376407719209,1676.0864,201.171,75.04,230.1,C11H16,"1,3-dimethyl-4-isopropylbenzene",4706-89-2,191.15,Yaw
Cc1cc(C)cc(C(C)C)c1,"1,2",4.1885864077192085,1660.965,202.045,71.62,225.21,C11H16,"1,3-dimethyl-5-isopropylbenzene",4706-90-5,228.43,Yaw
Cc1ccc(C)c(C(C)C)c1,"1,2",4.188136407719209,1666.5533,201.722,72.88,227.02,C11H16,"1,4-dimethyl-2-isopropylbenzene",4132-72-3,228.43,Yaw
CCc1cccc(C)c1CC,"1,2",4.241226407719209,1723.408,199.746,81.76,237.64,C11H16,"1-methyl-2,3-diethylbenzene",13632-93-4,228.43,Yaw
CCc1ccc(C)c(CC)c1,"1,2",4.241646407719209,1718.0793,200.05,80.57,235.94,C11H16,"1-methyl-2,4-diethylbenzene",1758-85-6,228.43,Yaw
CCc1ccc(CC)c(C)c1,"1,2",4.241096407719208,1725.0732,199.651,82.14,238.18,C11H16,"1-methyl-2,5-diethylbenzene",13632-94-5,228.43,Yaw
CCc1cccc(CC)c1C,"1,2",4.240666407719209,1730.735,199.328,83.4,239.99,C11H16,"1-methyl-2,6-diethyl benzene",13632-95-6,228.43,Yaw
CCc1ccc(C)cc1CC,"1,2",4.242006407719209,1713.4168,200.316,79.52,234.45,C11H16,"1-methyl-3,4-diethylbenzene",13732-80-4,228.43,Yaw
CCc1cc(C)cc(CC)c1,"1,2",4.422276407719209,1888.205,226.276,73.29,231.89,C11H16,"1-methyl-3,5-diethylbenzene",2050-24-0,199.03,Yaw
CCc1ccc(C)c(C)c1C,"1,2",4.229716407719208,1766.0113,197.124,91.89,252.39,C11H16,"1,2,3-trimethyl-4-ethylbenzene",61827-86-9,228.43,Yaw
CCc1cc(C)c(C)c(C)c1,"1,2",4.230856407719209,1750.72,197.998,88.46,247.5,C11H16,"1,2,3-trimethyl-5-ethylbenzene",31366-00-4,228.43,Yaw
CCc1c(C)ccc(C)c1C,"1,2",4.230656407719208,1753.3794,197.846,89.05,248.35,C11H16,"1,2,4-trimethyl-3-ethylbenzene",61827-87-0,228.43,Yaw
CCc1cc(C)c(C)cc1C,"1,2",4.286526407719209,1798.319,206.528,85.06,244.69,C11H16,"1,2,4-trimethyl-5-ethylbenzene",17851-27-3,259.65,Yaw
CCc1cc(C)cc(C)c1C,"1,2",4.231556407719209,1741.4125,198.53,86.37,244.52,C11H16,"1,2,4-trimethyl-6-ethylbenzene",---,259.65,Yaw
CCc1c(C)cc(C)cc1C,"1,2",4.402826407719209,1907.5641,220.859,82.72,244.2,C11H16,"1,3,5-trimethyl-2-ethylbenzene",3982-67-0,257.65,Yaw
Cc1cc(C)c(C)c(C)c1C,"1,2",4.222976407719209,1800.503,194.958,100.02,264.13,C11H16,pentamethylbenzene,700-12-9,327.45,Yaw
C=CC#CC(=CCC)CCC,2,3.9791464077192087,1646.3493,199.871,81.08,247.74,C11H16,"5-propyl-1,5-octadien-3-yne",70732-44-4,230.5836678525881,ML
C#CCCCCCCCC#C,2,4.379986407719208,1834.0946,199.871,93.08,249.78,C11H16,"1,10-undecadiyne",4117-15-1,256.15,Yaw
CCC(C)(C)c1ccc(O)cc1,"1,2",5.004696407719209,2192.7561,183.089,135.37,283.09,C11H16O,p-tert-amylphenol,80-46-6,366.0,Yaw
CCCCc1cc(C)ccc1O,2,4.005236407719209,1768.4652,192.68,107.77,284.74,C11H16O,2-butyl-4-methylphenol,6891-45-8,292.15,Yaw
Cc1ccc(O)c(C(C)(C)C)c1,2,4.286616407719209,1881.9812,190.178,114.97,282.02,C11H16O,2-tert-butyl-4-methylphenol,2409-55-4,324.65,Yaw
Cc1ccc(C(C)(C)C)c(O)c1,2,4.281676407719209,1879.992,190.22,114.85,282.06,C11H16O,2-tert-butyl-5-methylphenol,88-60-8,319.65,Yaw
Cc1cccc(C(C)(C)C)c1O,2,4.065256407719208,1792.7056,192.124,109.37,284.12,C11H16O,2-tert-butyl-6-methylphenol,2219-82-1,304.15,Yaw
Cc1cc(C(C)(C)C)ccc1O,2,4.286616407719209,1881.9812,190.178,114.97,282.02,C11H16O,4-tert-butyl-2-methylphenol,98-27-1,300.65,Yaw
CC(C)CCc1ccc(O)cc1,2,4.9511164077192085,2148.944,185.174,129.37,276.96,C11H16O,4-isopentylphenol,1805-61-4,302.15,Yaw
CCC(C)c1ccc(C)cc1O,2,4.599986407719209,2008.051,187.676,122.17,279.43,C11H16O,5-methyl-2-sec-butylphenol,29472-95-5,322.97,Yaw
Cc1c(C)c(C)c(O)c(C)c1C,2,5.490866407719208,2364.8955,181.838,128.0,273.84,C11H16O,pentamethylphenol,2819-86-5,401.15,Yaw
CCCCCc1ccc(O)cc1,2,4.770416407719209,2076.482,186.425,125.77,278.18,C11H16O,4-pentylphenol,14938-35-3,296.15,Yaw
CCCC(C)c1ccccc1O,"1,2",4.705036407719208,2028.8769,188.624,119.44,272.07,C11H16O,2-(1-methylbutyl)phenol,87-26-3,322.97,Yaw
CCCCCc1ccccc1O,2,4.281676407719209,1879.992,190.22,114.85,282.06,C11H16O,o-amylphenol,136-81-2,322.97,Yaw
CCCC(C)c1ccc(O)cc1,2,4.281676407719209,1879.992,190.22,114.85,282.06,C11H16O,4-sec-amylphenol,25735-67-5,322.97,Yaw
CCN(CC)c1ccccc1C,2,3.6920764077192088,1591.2398,197.962,87.57,271.29,C11H17N,"N,N-diethyl-2-methylaniline",606-46-2,213.15,Yaw
CCN(CC)c1ccc(C)cc1,2,4.300076407719208,1829.3717,192.402,103.57,265.05,C11H17N,"N,N-diethyl-4-methylaniline",613-48-9,319.4,Yaw
CC(C)CCc1ccc(N)cc1,2,4.982806407719209,2167.0517,181.88,133.85,280.99,C11H17N,4-isopentylaniline,104177-72-2,319.4,Yaw
CC(C)CCNc1ccccc1,"1,2",4.405846407719209,1944.3597,185.313,123.97,288.36,C11H17N,N-isopentylaniline,2051-84-5,319.4,Yaw
CCC(C)(C)c1ccc(N)cc1,2,4.728926407719209,2064.9824,183.645,128.77,282.71,C11H17N,p-tert-pentylaniline,2049-92-5,319.4,Yaw
CCNC(C)Cc1ccccc1,2,4.104226407719208,1802.5755,188.83,112.35,285.13,C11H17N,N-ethyl-alpha-methylbenzeneethanamine,457-87-4,345.02050324327894,ML
CC(C)(C)NCc1ccccc1,2,4.104226407719208,1802.5755,188.83,112.35,285.13,C11H17N,N-benzyl-tert-butylamine,3378-72-1,334.5665104067121,ML
CCCCNCc1ccccc1,2,4.104226407719208,1802.5755,188.83,112.35,285.13,C11H17N,N-butylbenzylamine,2403-22-7,305.3119947708539,ML
CCN(CC)c1cccc(C)c1,2,4.386806407719209,1863.2215,191.707,105.57,264.32,C11H17N,"N,N-diethyl-m-toluidine",91-67-8,319.4,Yaw
CCN(c1ccccc1)C(C)C,2,4.134406407719209,1764.6391,193.792,99.57,266.54,C11H17N,N-ethyl-N-isopropylaniline,54813-77-3,319.4,Yaw
Cc1cc(C)c(N(C)C)c(C)c1,"1,2",4.424736407719209,1816.8962,196.572,91.57,244.03,C11H17N,"N,N,2,4,6-pentamethylaniline",13021-15-3,319.4,Yaw
CCCCCc1ccc(N)cc1,2,4.592166407719208,2009.9249,184.66,125.85,283.73,C11H17N,4-pentylaniline,33228-44-3,319.4,Yaw
CCCCCNc1ccccc1,"1,2",4.458896407719209,1972.3479,184.34,126.77,290.03,C11H17N,N-pentylaniline,2655-27-8,319.4,Yaw
C=CC#CCCCCCCC,2,4.463076407719209,1816.6125,200.186,86.17,236.28,C11H18,1-undecen-3-yne,74744-28-8,236.00972936678758,ML
CCC1C(C)=C(C)C(C)=C1C,3,4.135856407719209,1662.7442,200.186,76.17,233.4,C11H18,ethyl-tetramethylcyclopentadiene,57693-77-3,236.82008276595354,ML
C=CC=CC=CCCCCC,2,5.3344664077192085,2118.3753,195.266,98.33,225.59,C11H18,"1,3,5-undecatriene",16356-11-9,259.2376045951653,ML
CCCCCCCCC#CC=O,2,3.610026407719209,1706.5647,188.232,122.57,327.5,C11H18O,2-undecynal,---,266.15,Yaw
CCCCCCCC#CCC=O,2,3.610026407719209,1706.5647,188.232,122.57,327.5,C11H18O,3-undecynal,---,266.15,Yaw
CCCCCCC#CCCC=O,2,3.610026407719209,1706.5647,188.232,122.57,327.5,C11H18O,4-undecynal,---,266.15,Yaw
CCCCCC#CCCCC=O,2,3.610026407719209,1706.5647,188.232,122.57,327.5,C11H18O,5-undecynal,---,266.15,Yaw
CCCCC#CCCCCC=O,2,3.610026407719209,1706.5647,188.232,122.57,327.5,C11H18O,6-undecynal,---,266.15,Yaw
CCCC#CCCCCCC=O,2,3.610026407719209,1706.5647,188.232,122.57,327.5,C11H18O,7-undecynal,---,266.15,Yaw
CCC#CCCCCCCC=O,2,3.610026407719209,1706.5647,188.232,122.57,327.5,C11H18O,8-undecynal,---,266.15,Yaw
CC#CCCCCCCCC=O,2,3.610026407719209,1706.5647,188.232,122.57,327.5,C11H18O,9-undecynal,---,266.15,Yaw
C#CCCCCCCCCC=O,2,3.610026407719209,1706.5647,188.232,122.57,327.5,C11H18O,10-undecynal,103680-94-0,266.15,Yaw
C#CCCCCCCC(C)C=O,2,3.3822864077192083,1608.3113,191.012,114.57,330.95,C11H18O,2-methyl-9-decynal,---,266.15,Yaw
C#CCCCCCC(C)CC=O,2,3.3822864077192083,1608.3113,191.012,114.57,330.95,C11H18O,3-methyl-9-decynal,---,266.15,Yaw
C#CCCCCC(C)CCC=O,2,3.3822864077192083,1608.3113,191.012,114.57,330.95,C11H18O,4-methyl-9-decynal,---,266.15,Yaw
C#CCCCC(C)CCCC=O,2,3.3822864077192083,1608.3113,191.012,114.57,330.95,C11H18O,5-methyl-9-decynal,---,266.15,Yaw
C#CCCC(C)CCCCC=O,2,3.3822864077192083,1608.3113,191.012,114.57,330.95,C11H18O,6-methyl-9-decynal,---,266.15,Yaw
C#CCC(C)CCCCCC=O,2,3.3822864077192083,1608.3113,191.012,114.57,330.95,C11H18O,7-methyl-9-decynal,---,266.15,Yaw
C#CC(C)CCCCCCC=O,2,3.3822864077192083,1608.3113,191.012,114.57,330.95,C11H18O,8-methyl-9-decynal,---,266.15,Yaw
CCCCCCC(C)C#CC=O,2,3.3822864077192083,1608.3113,191.012,114.57,330.95,C11H18O,4-methyl-2-decynal,---,266.15,Yaw
CCCCCC(C)CC#CC=O,2,3.3822864077192083,1608.3113,191.012,114.57,330.95,C11H18O,5-methyl-2-decynal,---,266.15,Yaw
CCCCC(C)CCC#CC=O,2,3.3822864077192083,1608.3113,191.012,114.57,330.95,C11H18O,6-methyl-2-decynal,---,266.15,Yaw
CCCC(C)CCCC#CC=O,2,3.3822864077192083,1608.3113,191.012,114.57,330.95,C11H18O,7-methyl-2-decynal,---,266.15,Yaw
CCC(C)CCCCC#CC=O,2,3.3822864077192083,1608.3113,191.012,114.57,330.95,C11H18O,8-methyl-2-decynal,---,266.15,Yaw
CC(C)CCCCCC#CC=O,2,3.3822864077192083,1608.3113,191.012,114.57,330.95,C11H18O,9-methyl-2-decynal,---,266.15,Yaw
CCCCCCCc1ccco1,2,4.175326407719209,1698.3922,202.271,78.17,236.1,C11H18O,2-heptylfuran,3777-71-7,242.80909699955774,ML
CCCCCCCCC#CC(=O)O,3,4.8270764077192085,2425.0877,161.218,200.0,375.0,C11H18O2,2-undecynoic acid,---,305.65,Yaw
CCCCCCCC#CCC(=O)O,3,4.8270764077192085,2425.0877,161.218,200.0,375.0,C11H18O2,3-undecynoic acid,---,307.19,Yaw
CCCCCCC#CCCC(=O)O,3,4.8270764077192085,2425.0877,161.218,200.0,375.0,C11H18O2,4-undecynoic acid,---,307.19,Yaw
CCCCCC#CCCCC(=O)O,3,4.8270764077192085,2425.0877,161.218,200.0,375.0,C11H18O2,5-undecynoic acid,---,307.19,Yaw
CCCCC#CCCCCC(=O)O,3,4.8270764077192085,2425.0877,161.218,200.0,375.0,C11H18O2,6-undecynoic acid,55182-83-7,274.15,Yaw
CCCC#CCCCCCC(=O)O,3,4.8270764077192085,2425.0877,161.218,200.0,375.0,C11H18O2,7-undecynoic acid,---,307.19,Yaw
CCC#CCCCCCCC(=O)O,3,4.8270764077192085,2425.0877,161.218,200.0,375.0,C11H18O2,8-undecynoic acid,---,307.19,Yaw
CC#CCCCCCCCC(=O)O,3,4.8270764077192085,2425.0877,161.218,200.0,375.0,C11H18O2,9-undecynoic acid,22202-65-9,334.15,Yaw
C#CCCCCCCCCC(=O)O,3,4.8270764077192085,2425.0877,161.218,200.0,375.0,C11H18O2,10-undecynoic acid,2777-65-3,314.8,Yaw
CCCCCCC(C)C#CC(=O)O,3,4.8270764077192085,2425.0877,161.218,200.0,375.0,C11H18O2,4-methyl-2-decynoic acid,---,307.19,Yaw
CCCCCC(C)CC#CC(=O)O,3,4.8270764077192085,2425.0877,161.218,200.0,375.0,C11H18O2,5-methyl-2-decynoic acid,---,307.19,Yaw
CCCCC(C)CCC#CC(=O)O,3,4.8270764077192085,2425.0877,161.218,200.0,375.0,C11H18O2,6-methyl-2-decynoic acid,---,307.19,Yaw
CCCC(C)CCCC#CC(=O)O,3,4.8270764077192085,2425.0877,161.218,200.0,375.0,C11H18O2,7-methyl-2-decynoic acid,---,307.19,Yaw
CCC(C)CCCCC#CC(=O)O,3,4.8270764077192085,2425.0877,161.218,200.0,375.0,C11H18O2,8-methyl-2-decynoic acid,---,307.19,Yaw
CC(C)CCCCCC#CC(=O)O,3,4.8270764077192085,2425.0877,161.218,200.0,375.0,C11H18O2,9-methyl-2-decynoic acid,---,307.19,Yaw
CCCCCCC#CC(C)C(=O)O,3,4.8270764077192085,2425.0877,161.218,200.0,375.0,C11H18O2,2-methyl-3-decynoic acid,---,307.19,Yaw
CCCCCC(C)C#CCC(=O)O,3,4.8270764077192085,2425.0877,161.218,200.0,375.0,C11H18O2,5-methyl-3-decynoic acid,---,307.19,Yaw
CCCCC(C)CC#CCC(=O)O,3,4.8270764077192085,2425.0877,161.218,200.0,375.0,C11H18O2,6-methyl-3-decynoic acid,---,307.19,Yaw
CCCC(C)CCC#CCC(=O)O,3,4.8270764077192085,2425.0877,161.218,200.0,375.0,C11H18O2,7-methyl-3-decynoic acid,---,307.19,Yaw
CCC(C)CCCC#CCC(=O)O,3,4.8270764077192085,2425.0877,161.218,200.0,375.0,C11H18O2,8-methyl-3-decynoic acid,---,307.19,Yaw
CC(C)CCCCC#CCC(=O)O,3,4.8270764077192085,2425.0877,161.218,200.0,375.0,C11H18O2,9-methyl-3-decynoic acid,---,307.19,Yaw
CCCCCC#CCC(C)C(=O)O,3,4.8270764077192085,2425.0877,161.218,200.0,375.0,C11H18O2,2-methyl-4-decynoic acid,---,307.19,Yaw
CCCCCC#CC(C)CC(=O)O,3,4.8270764077192085,2425.0877,161.218,200.0,375.0,C11H18O2,3-methyl-4-decynoic acid,---,307.19,Yaw
CCCCC(C)C#CCCC(=O)O,3,4.8270764077192085,2425.0877,161.218,200.0,375.0,C11H18O2,6-methyl-4-decynoic acid,---,307.19,Yaw
CCCC(C)CC#CCCC(=O)O,3,4.8270764077192085,2425.0877,161.218,200.0,375.0,C11H18O2,7-methyl-4-decynoic acid,---,307.19,Yaw
CCC(C)CCC#CCCC(=O)O,3,4.8270764077192085,2425.0877,161.218,200.0,375.0,C11H18O2,8-methyl-4-decynoic acid,---,307.19,Yaw
CC(C)CCCC#CCCC(=O)O,3,4.8270764077192085,2425.0877,161.218,200.0,375.0,C11H18O2,9-methyl-4-decynoic acid,---,307.19,Yaw
CCCCCC(C#CC(=O)O)CC,3,4.8270764077192085,2425.0877,161.218,200.0,375.0,C11H18O2,4-ethyl-2-nonynoic acid,---,307.19,Yaw
CCCCC(CC)CC#CC(=O)O,3,4.8270764077192085,2425.0877,161.218,200.0,375.0,C11H18O2,5-ethyl-2-nonynoic acid,---,307.19,Yaw
CCCC(CC)CCC#CC(=O)O,3,4.8270764077192085,2425.0877,161.218,200.0,375.0,C11H18O2,6-ethyl-2-nonynoic acid,---,307.19,Yaw
CCC(CC)CCCC#CC(=O)O,3,4.8270764077192085,2425.0877,161.218,200.0,375.0,C11H18O2,7-ethyl-2-nonynoic acid,---,307.19,Yaw
CCCCCCCc1cccs1,2,4.724076407719209,2021.0607,187.065,118.93,269.87,C11H18S,2-heptylthiophene,18794-78-0,244.0,Yaw
CCCCCCCc1ccsc1,2,4.803276407719209,2052.2739,186.509,120.53,269.32,C11H18S,3-heptylthiophene,65016-61-7,244.0,Yaw
CC(C)CCCCc1cccs1,2,4.534886407719209,1946.4244,188.455,114.93,271.27,C11H18S,2-isoheptylthiophene,---,244.0,Yaw
CC(C)CCCCc1ccsc1,2,4.609096407719209,1975.7153,187.899,116.53,270.71,C11H18S,3-isoheptylthiophene,---,244.0,Yaw
CCCCCC(C)c1cccs1,2,4.357356407719209,1876.2822,189.845,110.93,272.71,C11H18S,2-sec-heptylthiophene,---,244.0,Yaw
CCCCCC(C)c1ccsc1,2,4.427036407719209,1903.8268,189.289,112.53,272.13,C11H18S,3-sec-heptylthiophene,---,244.0,Yaw
CCCCC(C)(C)c1cccs1,2,4.190436407719209,1810.2311,191.235,106.93,274.19,C11H18S,2-tert-heptylthiophene,---,244.0,Yaw
CCCCC(C)(C)c1ccsc1,2,4.255986407719209,1836.1844,190.679,108.53,273.6,C11H18S,3-tert-heptylthiophene,---,244.0,Yaw
CCCCCCc1ccsc1C,2,4.763416407719209,2036.5664,186.787,119.73,269.6,C11H18S,2-methyl-3-hexylthiophene,---,244.0,Yaw
CCCCCCc1csc(C)c1,2,4.803276407719209,2052.2739,186.509,120.53,269.32,C11H18S,2-methyl-4-hexyl thiophene,---,244.0,Yaw
CCCCCCc1ccc(C)s1,2,4.843676407719209,2068.1873,186.231,121.33,269.05,C11H18S,2-methyl-5-hexyl thiophene,---,244.0,Yaw
CCCCCCc1sccc1C,2,4.843676407719209,2068.1873,186.231,121.33,269.05,C11H18S,3-methyl-2-hexylthiophene,---,244.0,Yaw
CCCCCCc1cscc1C,2,4.884616407719209,2084.3108,185.953,122.13,268.78,C11H18S,3-methyl-4-hexyl thiophene,---,244.0,Yaw
CCCCCCc1cc(C)cs1,2,4.9261064077192085,2100.6486,185.675,122.93,268.51,C11H18S,3-methyl-5-hexylthiophene,---,244.0,Yaw
C[C@]12CCCC[C@H]1CCCC2,2,4.170296407719209,1693.4884,196.294,83.57,241.38,C11H20,4a-methyl-cis-decahydronaphthalene,2547-26-4,238.73169384696885,ML
C[C@]12CCCC[C@@H]1CCCC2,2,3.848576407719209,1573.545,199.074,75.57,244.48,C11H20,4a-methyl-trans-decahydronaphthalene,2547-27-5,217.28059963844615,ML
CCCCCCC1=CCCC1,2,4.403846407719208,1742.9976,201.0,76.34,223.83,C11H20,1-hexylcyclopentene,4291-99-0,211.95021294844574,ML
C#CCCCCCCCCC,"1,2",4.2907364077192085,1729.2655,208.013,72.19,225.42,C11H20,1-undecyne,2243-98-3,248.16,Yaw
CC#CCCCCCCCC,2,4.433336407719208,1779.8763,206.686,75.2,224.04,C11H20,2-undecyne,60212-29-5,243.05,Yaw
CCC#CCCCCCCC,"1,2",4.6898764077192086,1878.1298,200.464,85.37,227.47,C11H20,3-undecyne,60212-30-8,222.18,Yaw
CCCC#CCCCCCC,"1,2",4.689306407719209,1872.8211,200.881,84.17,225.9,C11H20,4-undecyne,60212-31-9,198.45,Yaw
CCCCC#CCCCCC,"1,2",4.689116407719209,1871.0516,201.02,83.77,225.37,C11H20,5-undecyne,2294-72-6,199.05,Yaw
C#CC(C)CCCCCCC,2,4.5340964077192085,1803.4651,202.966,78.17,223.08,C11H20,3-methyl-1-decyne,---,222.18,Yaw
C#CCC(C)CCCCCC,2,4.5340964077192085,1803.4651,202.966,78.17,223.08,C11H20,4-methyl-1-decyne,---,222.18,Yaw
C#CCCC(C)CCCCC,2,4.5340964077192085,1803.4651,202.966,78.17,223.08,C11H20,5-methyl-1-decyne,---,222.18,Yaw
C#CCCCC(C)CCCC,2,4.5340964077192085,1803.4651,202.966,78.17,223.08,C11H20,6-methyl-1-decyne,---,222.18,Yaw
C#CCCCCC(C)CCC,2,4.5340964077192085,1803.4651,202.966,78.17,223.08,C11H20,7-methyl-1-decyne,---,222.18,Yaw
C#CCCCCCC(C)CC,2,4.5340964077192085,1803.4651,202.966,78.17,223.08,C11H20,8-methyl-1-decyne,---,222.18,Yaw
C#CCCCCCCC(C)C,2,4.5340964077192085,1803.4651,202.966,78.17,223.08,C11H20,9-methyl-1-decyne,---,222.18,Yaw
CC#CC(C)CCCCCC,2,4.5340964077192085,1803.4651,202.966,78.17,223.08,C11H20,4-methyl-2-decyne,---,222.18,Yaw
CC#CCC(C)CCCCC,2,4.5340964077192085,1803.4651,202.966,78.17,223.08,C11H20,5-methyl-2-decyne,---,222.18,Yaw
CC#CCCC(C)CCCC,2,4.5340964077192085,1803.4651,202.966,78.17,223.08,C11H20,6-methyl-2-decyne,---,222.18,Yaw
CC#CCCCC(C)CCC,2,4.5340964077192085,1803.4651,202.966,78.17,223.08,C11H20,7-methyl-2-decyne,---,222.18,Yaw
CC#CCCCCC(C)CC,2,4.5340964077192085,1803.4651,202.966,78.17,223.08,C11H20,8-methyl-2-decyne,---,222.18,Yaw
CC#CCCCCCC(C)C,2,4.5340964077192085,1803.4651,202.966,78.17,223.08,C11H20,9-methyl-2-decyne,---,222.18,Yaw
CCC#CC(C)CCCCC,2,4.5340964077192085,1803.4651,202.966,78.17,223.08,C11H20,5-methyl-3-decyne,---,222.18,Yaw
CCC#CCC(C)CCCC,2,4.5340964077192085,1803.4651,202.966,78.17,223.08,C11H20,6-methyl-3-decyne,---,222.18,Yaw
CCC#CCCC(C)CCC,2,4.5340964077192085,1803.4651,202.966,78.17,223.08,C11H20,7-methyl-3-decyne,---,222.18,Yaw
CCC#CCCCC(C)CC,2,4.5340964077192085,1803.4651,202.966,78.17,223.08,C11H20,8-methyl-3-decyne,---,222.18,Yaw
CCC#CCCCCC(C)C,2,4.5340964077192085,1803.4651,202.966,78.17,223.08,C11H20,9-methyl-3-decyne,---,222.18,Yaw
C#CC(C)(C)CCCCCC,2,4.270116407719208,1706.7754,204.912,72.57,225.1,C11H20,"3,3-dimethyl-1-nonyne",---,222.18,Yaw
C#CC(C)C(C)CCCCC,2,4.270116407719208,1706.7754,204.912,72.57,225.1,C11H20,"3,4-dimethyl-1-nonyne",---,222.18,Yaw
C#CC(C)CC(C)CCCC,2,4.270116407719208,1706.7754,204.912,72.57,225.1,C11H20,"3,5-dimethyl-1-nonyne",---,222.18,Yaw
C#CC(C)CCC(C)CCC,2,4.270116407719208,1706.7754,204.912,72.57,225.1,C11H20,"3,6-dimethyl-1-nonyne",---,222.18,Yaw
C#CC(C)CCCC(C)CC,2,4.270116407719208,1706.7754,204.912,72.57,225.1,C11H20,"3,7-dimethyl-1-nonyne",---,222.18,Yaw
C#CC(C)CCCCC(C)C,2,4.270116407719208,1706.7754,204.912,72.57,225.1,C11H20,"3,8-dimethyl-1-nonyne",---,222.18,Yaw
CC#CC(C)(C)CCCCC,2,4.270116407719208,1706.7754,204.912,72.57,225.1,C11H20,"4,4-dimethyl-2-nonyne",---,222.18,Yaw