smiles,code,A [log10(atm)],B [C],C [C],TMIN [C],TMAX [C],FORMULA,NAME,CAS No,mp [K],mp_type
CCCCCC(I)CCC,2,4.618816407719208,1944.0666,190.734,108.37,259.51,C9H19I,4-iodononane,---,251.8113496664511,ML
CCCCC(I)CCCC,2,4.618816407719208,1944.0666,190.734,108.37,259.51,C9H19I,5-iodononane,---,251.4693911156659,ML
CCCCCCC(C)CI,2,4.618816407719208,1944.0666,190.734,108.37,259.51,C9H19I,1-iodo-2-methyloctane,---,247.1691083120893,ML
CCCCCC(C)CCI,2,4.618816407719208,1944.0666,190.734,108.37,259.51,C9H19I,1-iodo-3-methyloctane,---,249.96688547902008,ML
CCCCC(C)CCCI,2,4.618816407719208,1944.0666,190.734,108.37,259.51,C9H19I,1-iodo-4-methyloctane,---,251.27702007879125,ML
CCCC(C)CCCCI,2,4.618816407719208,1944.0666,190.734,108.37,259.51,C9H19I,1-iodo-5-methyloctane,---,251.4213980448069,ML
CCC(C)CCCCCI,2,4.618816407719208,1944.0666,190.734,108.37,259.51,C9H19I,1-iodo-6-methyloctane,---,251.2993356513057,ML
CC(C)CCCCCCI,2,4.618816407719208,1944.0666,190.734,108.37,259.51,C9H19I,1-iodo-7-methyloctane,---,251.52197841746548,ML
CCCCCCC(C)(C)I,2,4.258496407719209,1804.2466,193.514,100.37,262.4,C9H19I,2-iodo-2-methyloctane,---,253.30512543174368,ML
CCCCCC(C)C(C)I,2,4.258496407719209,1804.2466,193.514,100.37,262.4,C9H19I,2-iodo-3-methyloctane,---,249.72250402430282,ML
CCCCC(C)CC(C)I,2,4.258496407719209,1804.2466,193.514,100.37,262.4,C9H19I,2-iodo-4-methyloctane,---,250.4034525512518,ML
CCCC(C)CCC(C)I,2,4.258496407719209,1804.2466,193.514,100.37,262.4,C9H19I,2-iodo-5-methyloctane,---,250.96337577755307,ML
CCC(C)CCCC(C)I,2,4.258496407719209,1804.2466,193.514,100.37,262.4,C9H19I,2-iodo-6-methyloctane,---,250.23897326691016,ML
CC(C)CCCCC(C)I,2,4.258496407719209,1804.2466,193.514,100.37,262.4,C9H19I,2-iodo-7-methyloctane,---,250.93196891513813,ML
CCCCCC(I)C(C)C,2,4.258496407719209,1804.2466,193.514,100.37,262.4,C9H19I,3-iodo-2-methyloctane,---,250.24022436072335,ML
CCCCCC(C)(I)CC,2,4.258496407719209,1804.2466,193.514,100.37,262.4,C9H19I,3-iodo-3-methyloctane,---,248.92892502956263,ML
CCCCC(C)C(I)CC,2,4.258496407719209,1804.2466,193.514,100.37,262.4,C9H19I,3-iodo-4-methyloctane,---,249.70870084418766,ML
CCCC(C)CC(I)CC,2,4.258496407719209,1804.2466,193.514,100.37,262.4,C9H19I,3-iodo-5-methyloctane,---,247.97735289778026,ML
CCC(C)CCC(I)CC,2,4.258496407719209,1804.2466,193.514,100.37,262.4,C9H19I,3-iodo-6-methyloctane,---,248.70690201489037,ML
CCC(I)CCCC(C)C,2,4.258496407719209,1804.2466,193.514,100.37,262.4,C9H19I,3-iodo-7-methyloctane,---,249.09077967693952,ML
CC(C)(C)N1CCCCC1,2,3.838876407719209,1490.474,209.916,28.0,211.38,C9H19N,1-tert-butylpiperidine,14446-69-6,301.15,Yaw
CCCCC1CCCNC1,2,5.0358564077192085,1912.5101,201.437,75.07,202.49,C9H19N,3-butylpiperidine,13603-21-9,301.15,Yaw
CCCCC1CCNCC1,2,4.916866407719208,1870.7376,202.132,73.07,203.15,C9H19N,4-butylpiperidine,24152-39-4,301.15,Yaw
CCCCN1CCCCC1,"1,2",4.303086407719209,1643.7185,207.136,28.0,203.58,C9H19N,N-butylpiperidine,4945-48-6,301.15,Yaw
CCC1CCC(CC)NC1,2,4.735606407719208,1807.0402,203.244,69.87,204.24,C9H19N,"2,5-diethylpiperidine",116836-21-6,301.15,Yaw
CC(C)CN1CCCCC1,2,3.670106407719208,1430.5557,211.445,28.0,213.17,C9H19N,1-isobutylpiperidine,10315-89-6,301.15,Yaw
CCCC1CCCCN1C,2,4.106246407719208,1585.1465,207.692,28.0,208.88,C9H19N,"1-methyl-2-propylpiperidine, (S)",35305-13-6,301.15,Yaw
CC1CC(C)NC(C)(C)C1,2,3.5401564077192083,1384.3319,212.696,28.0,214.68,C9H19N,"2,2,4,6-tetramethylpiperidine",6292-82-6,301.15,Yaw
CC1(C)CCCC(C)(C)N1,"1,2",4.391076407719209,1601.6304,212.696,28.0,178.9,C9H19N,"2,2,6,6-tetramethylpiperidine",768-66-1,301.15,Yaw
CC(C)NC1CCCCC1,2,3.630456407719208,1444.0552,209.42,52.6,224.3,C9H19N,cyclohexylisopropylamine,1195-42-2,193.25,Yaw
CNC(C)CCC=C(C)C,2,5.080536407719209,1906.2154,206.858,66.97,191.97,C9H19N,"N,6-dimethyl-5-hepten-2-amine",503-01-5,262.2667435271605,ML
CC1CC(N)CC(C)(C)C1,2,4.007266407719209,1580.3266,206.024,62.37,220.37,C9H19N,"3,3,5-trimethylcyclohexylamine",15901-42-5,193.25,Yaw
CCCCN(C=O)CCCC,"1,2",3.1095764077192083,1438.2614,198.136,90.07,313.97,C9H19NO,"N,N-dibutylformamide",761-65-9,243.15,Yaw
CCCCCCCCC[N+](=O)[O-],2,4.382856407719209,1931.7927,186.842,121.57,286.42,C9H19NO2,1-nitrononane,2216-21-9,289.35282790709925,ML
CCCCCCCCC,"1,2",4.308276407719209,1607.7359,222.414,37.36,178.79,C9H20,nonane,111-84-2,219.7,Yaw
CCCCCCC(C)C,"1,2",4.2565064077192085,1553.8851,221.781,31.41,171.06,C9H20,2-methyloctane,3221-61-2,192.78,Yaw
CCCCCC(C)CC,"1,2",4.294856407719209,1594.9414,227.131,31.13,172.22,C9H20,3-methyloctane,2216-33-3,165.55,Yaw
CCCCC(C)CCC,"1,2",4.308726407719209,1601.0574,229.145,29.53,170.35,C9H20,4-methyloctane,2216-34-4,159.95,Yaw
CCCCCC(C)(C)C,"1,2",4.218356407719209,1506.9435,224.544,22.53,160.14,C9H20,"2,2-dimethylheptane",1071-26-7,160.15,Yaw
CCCCC(C)C(C)C,"1,2",4.135676407719209,1461.4875,212.875,30.04,168.25,C9H20,"2,3-dimethylheptane",3074-71-3,160.16,Yaw
CCCC(C)CC(C)C,"1,2",4.1338064077192085,1433.8213,213.953,24.44,160.14,C9H20,"2,4-dimethylheptane",2213-23-2,160.16,Yaw
CCC(C)CCC(C)C,"1,2",4.154296407719209,1458.7541,215.134,26.58,163.44,C9H20,"2,5-dimethylheptane",2216-30-0,160.16,Yaw
CC(C)CCCC(C)C,"1,2",4.210016407719209,1512.0153,223.937,24.31,162.87,C9H20,"2,6-dimethylheptane",1072-05-5,170.25,Yaw
CCCCC(C)(C)CC,"1,2",4.506556407719208,1600.7071,217.895,32.71,162.72,C9H20,"3,3-dimethylheptane",4032-86-4,170.98,Yaw
CCC(CC)(CC)CC,2,4.907316407719208,1789.5789,228.471,35.16,160.04,C9H20,"3,3-diethylpentane",1067-20-5,171.0,Yaw
CCCC(C)C(C)CC,"1,2",4.184306407719209,1505.6331,219.218,29.03,168.5,C9H20,"3,4-dimethylheptane",922-28-1,170.26,Yaw
CCC(C)CC(C)CC,"1,2",4.151276407719209,1459.3022,215.521,26.4,163.49,C9H20,"3,5-dimethylheptane",926-82-9,170.26,Yaw
CCCC(C)(C)CCC,"1,2",4.146486407719209,1471.2465,219.607,24.49,162.99,C9H20,"4,4-dimethylheptane",1068-19-5,170.26,Yaw
CCCC(C)C(C)(C)C,"1,2",4.084036407719209,1433.9268,217.506,22.89,161.54,C9H20,"2,2,3-trimethylhexane",16747-25-4,153.16,Yaw
CCC(C)CC(C)(C)C,"1,2",4.149656407719209,1462.0648,225.794,16.65,154.1,C9H20,"2,2,4-trimethylhexane",16747-26-5,153.0,Yaw
CC(C)CCC(C)(C)C,"1,2",4.180556407719209,1478.0146,229.455,14.39,151.52,C9H20,"2,2,5-trimethylhexane",3522-94-9,167.39,Yaw
CCCC(C)(C)C(C)C,"1,2",4.0933364077192085,1456.042,218.021,25.7,165.93,C9H20,"2,3,3-trimethylhexane",16747-28-7,156.36,Yaw
CCC(C)C(C)C(C)C,"1,2",4.154986407719209,1496.6678,221.16,26.8,167.19,C9H20,"2,3,4-trimethylhexane",921-47-1,156.36,Yaw
CC(C)CC(C)C(C)C,"1,2",4.119316407719209,1436.8801,217.465,22.01,158.85,C9H20,"2,3,5-trimethylhexane",1069-53-0,145.36,Yaw
CCC(C)(C)CC(C)C,"1,2",4.135616407719208,1455.0364,221.17,20.67,158.28,C9H20,"2,4,4-trimethylhexane",16747-30-1,159.78,Yaw
CCC(C)C(C)(C)CC,"1,2",4.028486407719209,1406.6222,208.699,29.34,168.67,C9H20,"3,3,4-trimethylhexane",16747-31-2,171.96,Yaw
CCC(C)(C)C(C)(C)C,"1,2",4.042296407719209,1455.5439,219.789,25.95,169.26,C9H20,"2,2,3,3-tetramethylpentane",7154-79-2,263.26,Yaw
CC(C)C(C)C(C)(C)C,"1,2",4.138736407719208,1500.491,229.518,19.75,161.47,C9H20,"2,2,3,4-tetramethylpentane",1186-53-4,152.06,Yaw
CC(C)(C)CC(C)(C)C,"1,2",4.094986407719208,1436.9328,228.61,11.85,150.13,C9H20,"2,2,4,4-tetramethylpentane",1070-87-7,206.95,Yaw
CC(C)C(C)(C)C(C)C,"1,2",4.107696407719208,1484.8445,219.929,28.02,170.14,C9H20,"2,3,3,4-tetramethylpentane",16747-38-9,171.03,Yaw
CCCCC(CC)CC,"1,2",4.339046407719208,1628.2573,232.057,29.73,171.18,C9H20,3-ethylheptane,15869-80-4,158.25,Yaw
CCCC(CC)CCC,"1,2",4.248856407719209,1538.4425,220.874,30.11,168.82,C9H20,4-ethylheptane,2216-32-2,159.96,Yaw
CCCC(CC)C(C)C,"1,2",4.175436407719209,1490.4347,218.943,27.16,165.74,C9H20,3-ethyl-2-methylhexane,16789-46-1,160.16,Yaw
CCC(CC)CC(C)C,"1,2",4.1616064077192085,1459.9337,217.0,24.61,161.16,C9H20,4-ethyl-2-methylhexane,3074-75-7,160.16,Yaw
CCCC(C)(CC)CC,"1,2",4.162356407719209,1506.8584,221.41,27.94,168.83,C9H20,3-ethyl-3-methylhexane,3074-76-8,160.16,Yaw
CCC(C)C(CC)CC,"1,2",4.174386407719209,1489.8828,216.501,29.55,168.15,C9H20,3-ethyl-4-methylhexane,3074-77-9,160.16,Yaw
CCC(CC)C(C)(C)C,"1,2",4.212506407719209,1541.7836,232.161,20.87,162.01,C9H20,"2,2-dimethyl-3-ethylpentane",16747-32-3,173.68,Yaw
CCC(C)(CC)C(C)C,"1,2",4.2474964077192086,1592.5377,230.225,29.64,173.31,C9H20,"2,3-dimethyl-3-ethylpentane",16747-33-4,173.67,Yaw
CCC(C(C)C)C(C)C,"1,2",4.270586407719208,1590.4519,235.7,22.85,164.96,C9H20,"2,4-dimethyl-3-ethylpentane",1068-87-7,150.79,Yaw
CCCCCCCCCO,"1,2",4.211176407719209,1532.4898,152.06,99.5,239.87,C9H20O,1-nonanol,143-08-8,268.15,Yaw
CCCCCCCC(C)O,"1,2",5.1248664077192085,2002.6375,194.918,90.94,220.24,C9H20O,2-nonanol,628-99-9,238.15,Yaw
CCCCCCC(O)CC,"1,2",5.346816407719208,2288.3423,233.232,83.38,220.28,C9H20O,3-nonanol,624-51-1,295.15,Yaw
CCCCCC(O)CCC,"1,2",5.118506407719209,2038.9952,205.858,85.46,217.39,C9H20O,4-nonanol,5932-79-6,279.3,Yaw
CCCCC(O)CCCC,"1,2",4.606816407719209,1610.823,154.571,93.72,219.54,C9H20O,5-nonanol,623-93-8,278.75,Yaw
CCCCCCC(C)CO,2,5.470376407719209,2152.105,200.506,92.25,215.81,C9H20O,2-methyl-1-octanol,818-81-5,279.3,Yaw
CCCCCC(C)CCO,2,5.470376407719209,2152.105,200.506,92.25,215.81,C9H20O,3-methyl-1-octanol,38514-02-2,279.3,Yaw
CCCCC(C)CCCO,2,5.470376407719209,2152.105,200.506,92.25,215.81,C9H20O,4-methyl-1-octanol,38514-03-3,279.3,Yaw
CCCC(C)CCCCO,2,5.470376407719209,2152.105,200.506,92.25,215.81,C9H20O,5-methyl-1-octanol,38514-04-4,279.3,Yaw
CCC(C)CCCCCO,"1,2",5.114926407719208,2070.5033,198.796,97.17,231.31,C9H20O,6-methyl-1-octanol,38514-05-5,279.3,Yaw
CC(C)CCCCCCO,2,5.814576407719208,2277.5771,198.796,64.5,214.29,C9H20O,7-methyl-1-octanol,2430-22-0,337.65,Yaw
CCCCCCC(C)(C)O,"1,2",5.126106407719208,1971.3977,206.58,74.77,201.99,C9H20O,2-methyl-2-octanol,628-44-4,279.3,Yaw
CCCCCC(C)C(C)O,2,4.591656407719209,1830.6611,205.788,77.05,220.88,C9H20O,3-methyl-2-octanol,27644-49-1,279.3,Yaw
CCCC(C)CCC(C)O,2,4.591656407719209,1830.6611,205.788,77.05,220.88,C9H20O,5-methyl-2-octanol,66793-81-5,279.3,Yaw
CC(C)CCCCC(C)O,2,4.591656407719209,1830.6611,205.788,77.05,220.88,C9H20O,7-methyl-2-octanol,66793-83-7,279.3,Yaw
CCCCCC(O)C(C)C,"1,2",5.123606407719208,1992.6334,204.912,79.57,208.28,C9H20O,2-methyl-3-octanol,26533-34-6,279.3,Yaw
CCCCCC(C)(O)CC,2,4.9386564077192086,1957.818,203.522,83.57,218.64,C9H20O,3-methyl-3-octanol,5340-36-3,279.3,Yaw
CCCCC(C)C(O)CC,2,4.7997464077192085,1906.9524,204.398,81.05,219.49,C9H20O,4-methyl-3-octanol,66793-80-4,279.3,Yaw
CCC(C)CCC(O)CC,2,4.7997464077192085,1906.9524,204.398,81.05,219.49,C9H20O,6-methyl-3-octanol,40225-75-0,279.3,Yaw
CCC(O)CCCC(C)C,2,4.7997464077192085,1906.9524,204.398,81.05,219.49,C9H20O,7-methyl-3-octanol,66793-84-8,279.3,Yaw
CCCCC(O)CC(C)C,2,4.721046407719209,1878.111,204.912,79.57,220.0,C9H20O,2-methyl-4-octanol,40575-41-5,279.3,Yaw
CCCCC(O)C(C)CC,"1,2",5.125266407719209,1978.4762,206.024,76.37,204.09,C9H20O,3-methyl-4-octanol,26533-35-7,279.3,Yaw
CCCCC(C)(O)CCC,"1,2",5.174686407719209,1996.1155,205.746,77.17,203.83,C9H20O,4-methyl-4-octanol,23418-37-3,279.3,Yaw
CCCC(C)C(O)CCC,2,4.6321164077192085,1845.5045,205.51,77.85,220.6,C9H20O,5-methyl-4-octanol,59734-23-5,279.3,Yaw
CCCC(O)CC(C)CC,2,4.6321164077192085,1845.5045,205.51,77.85,220.6,C9H20O,6-methyl-4-octanol,66793-82-6,279.3,Yaw
CCCC(O)CCC(C)C,2,4.6321164077192085,1845.5045,205.51,77.85,220.6,C9H20O,7-methyl-4-octanol,33933-77-6,279.3,Yaw
CCCCCC(CC)CO,2,5.4175664077192085,2132.8341,200.784,91.45,216.07,C9H20O,2-ethyl-1-heptanol,817-60-7,279.3,Yaw
CCCCC(CC)CCO,"1,2",5.138106407719208,2081.0291,198.518,97.97,231.71,C9H20O,3-ethyl-1-heptanol,3525-25-5,279.3,Yaw
CCC(CC)CCCCO,2,5.4175664077192085,2132.8341,200.784,91.45,216.07,C9H20O,5-ethyl-1-heptanol,998-65-2,279.3,Yaw
CCCCCC(C)(C)CO,"1,2",5.131496407719208,2024.1618,202.688,85.97,216.35,C9H20O,"2,2-dimethyl-1-heptanol",14250-79-4,279.3,Yaw
CC(C)CC(C)CCCO,2,4.6321164077192085,1845.5045,205.51,77.85,220.6,C9H20O,"4,6-dimethyl-1-heptanol",820-05-3,279.3,Yaw
CC(C)(C)CCCCCO,2,4.6321164077192085,1845.5045,205.51,77.85,220.6,C9H20O,"6,6-dimethyl-1-heptanol",65769-10-0,279.3,Yaw
CCCCC(CC)C(C)O,2,4.6321164077192085,1845.5045,205.51,77.85,220.6,C9H20O,3-ethyl-2-heptanol,19780-39-3,279.3,Yaw
CCCCC(C)C(C)(C)O,2,4.6321164077192085,1845.5045,205.51,77.85,220.6,C9H20O,"2,3-dimethyl-2-heptanol",66794-00-1,279.3,Yaw
CCCC(C)CC(C)(C)O,2,4.6321164077192085,1845.5045,205.51,77.85,220.6,C9H20O,"2,4-dimethyl-2-heptanol",65822-93-7,279.3,Yaw
CCC(C)CCC(C)(C)O,2,4.6321164077192085,1845.5045,205.51,77.85,220.6,C9H20O,"2,5-dimethyl-2-heptanol",---,279.3,Yaw
CC(C)CCCC(C)(C)O,2,4.221086407719208,1694.4747,208.526,69.17,223.73,C9H20O,"2,6-dimethyl-2-heptanol",13254-34-7,279.3,Yaw
CC(C)CC(C)CC(C)O,"1,2",5.095636407719208,2021.0926,202.132,87.57,219.4,C9H20O,"4,6-dimethyl-2-heptanol",51079-52-8,279.3,Yaw
CC(O)CCC(C)C(C)C,"1,2",5.120366407719208,2020.9487,202.688,85.97,216.65,C9H20O,"5,6-dimethyl-2-heptanol",58795-24-7,279.3,Yaw
CCCCC(O)(CC)CC,2,4.646416407719209,1850.7475,205.413,78.13,220.5,C9H20O,3-ethyl-3-heptanol,19780-41-7,279.3,Yaw
CCCCC(O)C(C)(C)C,2,4.4735664077192085,1787.3083,206.622,74.65,221.73,C9H20O,"2,2-dimethyl-3-heptanol",19549-70-3,279.3,Yaw
CCCCC(C)(O)C(C)C,"1,2",5.178356407719209,1971.3591,207.692,71.57,196.5,C9H20O,"2,3-dimethyl-3-heptanol",19549-71-4,279.3,Yaw
CC(C)CCC(O)C(C)C,"1,2",5.335316407719208,2018.9595,207.414,72.37,193.63,C9H20O,"2,6-dimethyl-3-heptanol",19549-73-6,279.3,Yaw
CCC(C)CC(C)(O)CC,2,4.4352564077192085,1773.2367,206.9,73.85,222.02,C9H20O,"3,5-dimethyl-3-heptanol",19549-74-7,279.3,Yaw
CCC(C)(O)CCC(C)C,"1,2",5.128226407719209,1953.7018,207.97,70.77,196.76,C9H20O,"3,6-dimethyl-3-heptanol",1573-28-0,279.3,Yaw
CCCC(O)(CC)CCC,"1,2",5.101026407719209,1967.9862,206.302,75.57,203.7,C9H20O,4-ethyl-4-heptanol,597-90-0,279.3,Yaw
CCCC(O)CC(C)(C)C,2,4.328856407719209,1734.1257,207.692,71.57,222.84,C9H20O,"2,2-dimethyl-4-heptanol",66793-99-5,279.3,Yaw
CCCC(C)(O)CC(C)C,"1,2",5.174616407719208,1960.7391,208.415,69.49,193.9,C9H20O,"2,4-dimethyl-4-heptanol",19549-77-0,279.3,Yaw
CC(C)CC(O)CC(C)C,"1,2",5.176326407719209,1984.9749,206.622,74.65,200.53,C9H20O,"2,6-dimethyl-4-heptanol",108-82-7,208.0,Yaw
CCCC(O)C(C)(C)CC,2,4.403096407719208,1761.42,207.136,73.17,222.26,C9H20O,"3,3-dimethyl-4-heptanol",19549-78-1,279.3,Yaw
CCC(C)C(O)C(C)CC,"1,2",5.544716407719209,2124.0593,204.078,81.97,200.99,C9H20O,"3,5-dimethyl-4-heptanol",19549-79-2,279.3,Yaw
CCCCC(CO)CCC,2,4.931896407719209,1955.3438,203.564,83.45,218.68,C9H20O,2-propyl-1-hexanol,817-46-9,279.3,Yaw
CCCC(CCC)CCO,2,4.931896407719209,1955.3438,203.564,83.45,218.68,C9H20O,3-propyl-1-hexanol,66793-85-9,279.3,Yaw
CCCC(CC)CC(C)O,2,5.077046407719209,2008.4432,202.688,85.97,217.84,C9H20O,1-methyl-3-ethyl-1-hexanol,---,279.3,Yaw
CCCC(C)C(CC)CO,2,5.124566407719209,2025.8168,202.41,86.77,217.58,C9H20O,3-methyl-2-ethyl-1-hexanol,66794-04-5,279.3,Yaw
CCC(C)CC(CC)CO,"1,2",5.119176407719209,2031.5673,201.854,88.37,219.79,C9H20O,4-methyl-2-ethyl-1-hexanol,66794-06-7,279.3,Yaw
CCC(CO)CCC(C)C,2,5.117386407719208,2023.1944,202.452,86.65,217.62,C9H20O,5-methyl-2-ethyl-1-hexanol,66794-07-8,279.3,Yaw
CC(C)CC(C)(C)CCO,2,5.117386407719208,2023.1944,202.452,86.65,217.62,C9H20O,"3,3,5-trimethyl-1-hexanol",1484-87-3,279.3,Yaw
CCC(C)(C)C(C)CCO,"1,2",5.120766407719209,2017.4092,202.966,85.17,215.61,C9H20O,"3,4,4-trimethyl-1-hexanol",66793-73-5,279.3,Yaw
CC(CCO)CC(C)(C)C,"1,2",5.069856407719208,2009.997,202.41,86.77,219.08,C9H20O,"3,5,5-trimethyl-1-hexanol",3452-97-9,279.3,Yaw
CC(CCCO)C(C)(C)C,"1,2",5.097576407719209,2050.7976,199.908,93.97,227.65,C9H20O,"4,5,5-trimethyl-1-hexanol",66793-75-7,279.3,Yaw
CCCC(CC)C(C)(C)O,"1,2",5.151046407719209,1978.4172,206.58,74.77,201.34,C9H20O,2-methyl-3-ethyl-2-hexanol,66794-02-3,279.3,Yaw
CCC(C)C(C)C(C)(C)O,2,5.117386407719208,2023.1944,202.452,86.65,217.62,C9H20O,"2,3,4-trimethyl-2-hexanol",21102-13-6,279.3,Yaw
CCC(C)(C)CC(C)(C)O,2,5.117386407719208,2023.1944,202.452,86.65,217.62,C9H20O,"2,4,4-trimethyl-2-hexanol",66793-91-7,279.3,Yaw
CC(C)C(C)CC(C)(C)O,2,5.117386407719208,2023.1944,202.452,86.65,217.62,C9H20O,"2,4,5-trimethyl-2-hexanol",66793-93-9,279.3,Yaw
CC(C)(C)CCC(C)(C)O,2,5.117386407719208,2023.1944,202.452,86.65,217.62,C9H20O,"2,5,5-trimethyl-2-hexanol",66793-71-3,279.3,Yaw
CCCC(O)(CC)C(C)C,2,4.725246407719209,1879.6512,204.885,79.65,219.97,C9H20O,2-methyl-3-ethyl-3-hexanol,66794-03-4,279.3,Yaw
CCC(CC)C(O)C(C)C,2,4.5123964077192085,1801.5671,206.344,75.45,221.44,C9H20O,2-methyl-4-ethyl-3-hexanol,33943-21-4,279.3,Yaw
CCC(CC)C(C)(O)CC,2,4.5123964077192085,1801.5671,206.344,75.45,221.44,C9H20O,3-methyl-4-ethyl-3-hexanol,66794-05-6,279.3,Yaw
CCC(C)C(O)(CC)CC,2,4.5123964077192085,1801.5671,206.344,75.45,221.44,C9H20O,4-methyl-3-ethyl-3-hexanol,51200-80-7,279.3,Yaw
CCC(O)(CC)CC(C)C,"1,2",5.153916407719208,1957.1896,208.248,69.97,195.06,C9H20O,5-methyl-3-ethyl-3-hexanol,597-77-3,279.3,Yaw
CCCC(C)(O)C(C)(C)C,"1,2",5.288516407719209,1998.7563,207.943,70.85,192.81,C9H20O,"2,2,3-trimethyl-3-hexanol",5340-41-0,279.3,Yaw
CCC(C)C(O)C(C)(C)C,"1,2",5.1299564077192095,1939.5454,209.082,67.57,192.57,C9H20O,"2,2,4-trimethyl-3-hexanol",66793-89-3,279.3,Yaw
CC(C)CC(O)C(C)(C)C,2,3.859326407719209,1561.0566,211.584,60.37,227.12,C9H20O,"2,2,5-trimethyl-3-hexanol",3970-60-3,290.15,Yaw
CCC(C)C(C)(O)C(C)C,2,4.045516407719209,1629.7887,209.958,65.05,225.29,C9H20O,"2,3,4-trimethyl-3-hexanol",66793-90-6,279.3,Yaw
CC(C)CC(C)(O)C(C)C,2,4.045516407719209,1629.7887,209.958,65.05,225.29,C9H20O,"2,3,5-trimethyl-3-hexanol",65927-60-8,279.3,Yaw
CCC(C)(C)C(O)C(C)C,"1,2",5.079206407719209,1932.7723,208.526,69.17,195.97,C9H20O,"2,4,4-trimethyl-3-hexanol",66793-92-8,279.3,Yaw
CC(C)C(O)CC(C)(C)C,2,4.146386407719208,1666.9673,209.124,67.45,224.38,C9H20O,"2,5,5-trimethyl-3-hexanol",66793-72-4,279.3,Yaw
CCC(C)(C)C(C)(O)CC,"1,2",5.156846407719209,1935.9629,209.916,65.17,188.77,C9H20O,"3,4,4-trimethyl-3-hexanol",66793-74-6,296.65,Yaw
CCC(C)(O)CC(C)(C)C,2,4.045516407719209,1629.7887,209.958,65.05,225.29,C9H20O,"3,5,5-trimethyl-3-hexanol",66810-87-5,279.3,Yaw
CCCC(CO)CC(C)C,"1,2",5.1083264077192085,2017.472,202.688,85.97,216.98,C9H20O,4-methyl-2-propyl-1-pentanol,54004-41-0,279.3,Yaw
CC(C)CC(CO)C(C)C,"1,2",5.122376407719209,2003.2515,204.078,81.97,211.42,C9H20O,4-methyl-2-isopropyl-1-pentanol,55505-24-3,279.3,Yaw
CCC(CC)C(C)(C)CO,2,4.887206407719209,1938.9842,203.842,82.65,218.95,C9H20O,"2,2-dimethyl-3-ethyl-1-pentanol",66793-95-1,279.3,Yaw
CCC(C)(CO)CC(C)C,"1,2",5.121976407719208,2006.7909,203.8,82.77,212.46,C9H20O,"2,4-dimethyl-2-ethyl-1-pentanol",66793-98-4,279.3,Yaw
CCC(CC)(CC)C(C)O,2,4.887206407719209,1938.9842,203.842,82.65,218.95,C9H20O,"3,3-diethyl-2-pentanol",66793-94-0,279.3,Yaw
CCC(C)(CC)C(C)(C)O,2,4.887206407719209,1938.9842,203.842,82.65,218.95,C9H20O,"2,3-dimethyl-3-ethyl-2-pentanol",66793-97-3,279.3,Yaw
CCC(C(C)O)C(C)(C)C,2,4.887206407719209,1938.9842,203.842,82.65,218.95,C9H20O,"4,4-dimethyl-3-ethyl-2-pentanol",21102-09-0,279.3,Yaw
CC(C)C(C)(C)C(C)(C)O,2,4.551756407719209,1816.0167,206.066,76.25,221.16,C9H20O,"2,3,3,4-tetramethyl-2-pentanol",66793-86-0,279.3,Yaw
CC(C(C)(C)C)C(C)(C)O,2,4.551756407719209,1816.0167,206.066,76.25,221.16,C9H20O,"2,3,4,4-tetramethyl-2-pentanol",66793-87-1,279.3,Yaw
CC(O)C(C)(C)C(C)(C)C,2,4.557706407719208,1818.2008,206.024,50.0,221.12,C9H20O,"3,3,4,4-tetramethyl-2-pentanol",66793-88-2,323.15,Yaw
CCC(O)(C(C)C)C(C)C,2,4.479356407719209,1789.4351,206.58,74.77,221.69,C9H20O,2-methyl-3-isopropyl-3-pentanol,---,279.3,Yaw
CCC(O)(CC)C(C)(C)C,"1,2",5.127796407719208,1957.2409,207.692,71.57,197.8,C9H20O,"2,2-dimethyl-3-ethyl-3-pentanol",66793-96-2,254.15,Yaw
CC(C)C(C)(O)C(C)(C)C,2,4.336186407719208,1736.8235,207.637,71.73,222.79,C9H20O,"2,2,3,4-tetramethyl-3-pentanol",62185-29-9,285.95,Yaw
CC(C)(C)C(O)C(C)(C)C,"1,2",5.189906407719208,1948.7491,209.638,50.0,188.97,C9H20O,"2,2,4,4-tetramethyl-3-pentanol",14609-79-1,323.15,Yaw
CCCCCCCCOC,2,5.181396407719209,1920.9297,207.831,64.17,185.77,C9H20O,1-methoxy-octane,929-56-6,204.85,Yaw
CCCCCCC(C)OC,2,4.334236407719208,1629.5084,213.058,49.13,190.97,C9H20O,2-methoxy-octane,---,204.85,Yaw
CCCCCC(CC)OC,2,4.334236407719208,1629.5084,213.058,49.13,190.97,C9H20O,3-methoxy-octane,---,204.85,Yaw