smiles,code,A [log10(atm)],B [C],C [C],TMIN [C],TMAX [C],FORMULA,NAME,CAS No,mp [K],mp_type
CCCCCCC(=O)OCCC,"1,2",4.529776407719209,1839.904,198.24,88.77,236.85,C10H20O2,propyl heptanoate,7778-87-2,209.65,Yaw
CCCCC(CC)C(=O)OCC,2,4.499476407719208,1812.871,200.303,83.83,231.49,C10H20O2,ethyl 2-ethylhexanoate,2983-37-1,209.65,Yaw
CCCCCCCC(=O)OCC,"1,2",4.5835064077192085,1857.0137,198.101,89.17,235.53,C10H20O2,ethyl octanoate,106-32-1,230.05,Yaw
CCCCCCCCC(=O)OC,"1,2",4.529096407719209,1858.1132,196.711,93.17,242.76,C10H20O2,methyl nonanoate,1731-84-6,240.1958192047297,ML
CCCCOCCOCCOC(C)=O,"1,2",5.336396407719208,2638.3475,249.106,116.46,274.86,C10H20O4,diethylene glycol monobutyl ether acetate,124-17-4,240.95,Yaw
C1CCCCCSCCCC1,3,3.6259164077192088,1644.1143,190.74,107.82,303.75,C10H20S,thiacycloundecane,408-32-2,303.8511464515603,ML
CCCCCCCCCCBr,"1,2",4.804176407719209,2052.4745,189.178,117.85,266.61,C10H21Br,1-bromodecane,112-29-8,243.95,Yaw
CCCCCCCCC(C)Br,2,4.641066407719209,1968.3519,191.958,109.85,261.58,C10H21Br,2-bromodecane,39563-53-6,243.95,Yaw
CCCCCCCC(Br)CC,2,4.641066407719209,1968.3519,191.958,109.85,261.58,C10H21Br,3-bromodecane,---,251.90498083167645,ML
CCCCCCC(Br)CCC,2,4.641066407719209,1968.3519,191.958,109.85,261.58,C10H21Br,4-bromodecane,---,254.87329686604582,ML
CCCCCC(Br)CCCC,2,4.641066407719209,1968.3519,191.958,109.85,261.58,C10H21Br,5-bromodecane,---,253.9057448616644,ML
CCCCCCCC(C)CBr,2,4.641066407719209,1968.3519,191.958,109.85,261.58,C10H21Br,1-bromo-2-methylnonane,---,252.52729305934642,ML
CCCCCCC(C)CCBr,2,4.641066407719209,1968.3519,191.958,109.85,261.58,C10H21Br,1-bromo-3-methylnonane,---,253.84686135201073,ML
CCCCCC(C)CCCBr,2,4.641066407719209,1968.3519,191.958,109.85,261.58,C10H21Br,1-bromo-4-methylnonane,---,254.1003906196125,ML
CCCCC(C)CCCCBr,2,4.641066407719209,1968.3519,191.958,109.85,261.58,C10H21Br,1-bromo-5-methylnonane,---,254.11406506373407,ML
CCCC(C)CCCCCBr,2,4.641066407719209,1968.3519,191.958,109.85,261.58,C10H21Br,1-bromo-6-methylnonane,---,254.22843579998366,ML
CCC(C)CCCCCCBr,2,4.641066407719209,1968.3519,191.958,109.85,261.58,C10H21Br,1-bromo-7-methylnonane,---,253.50565206812618,ML
CC(C)CCCCCCCBr,2,4.641066407719209,1968.3519,191.958,109.85,261.58,C10H21Br,1-bromo-8-methylnonane,---,253.47954822392475,ML
CCCCCCCC(C)(C)Br,2,4.280796407719208,1827.4561,194.738,101.85,264.45,C10H21Br,2-bromo-2-methylnonane,---,253.58747486198456,ML
CCCCCCC(C)C(C)Br,2,4.280796407719208,1827.4561,194.738,101.85,264.45,C10H21Br,2-bromo-3-methylnonane,---,250.16571526474976,ML
CCCCCC(C)CC(C)Br,2,4.280796407719208,1827.4561,194.738,101.85,264.45,C10H21Br,2-bromo-4-methylnonane,---,251.4725171721477,ML
CCCCC(C)CCC(C)Br,2,4.280796407719208,1827.4561,194.738,101.85,264.45,C10H21Br,2-bromo-5-methylnonane,---,250.97205174473402,ML
CCCC(C)CCCC(C)Br,2,4.280796407719208,1827.4561,194.738,101.85,264.45,C10H21Br,2-bromo-6-methylnonane,---,251.46051225774013,ML
CCC(C)CCCCC(C)Br,2,4.280796407719208,1827.4561,194.738,101.85,264.45,C10H21Br,2-bromo-7-methylnonane,---,250.84090954896055,ML
CC(C)CCCCCC(C)Br,2,4.280796407719208,1827.4561,194.738,101.85,264.45,C10H21Br,2-bromo-8-methylnonane,---,250.65997342905007,ML
CCCCCCC(Br)C(C)C,2,4.280796407719208,1827.4561,194.738,101.85,264.45,C10H21Br,3-bromo-2-methylnonane,---,251.52923843256826,ML
CCCCCCC(C)(Br)CC,2,4.280796407719208,1827.4561,194.738,101.85,264.45,C10H21Br,3-bromo-3-methylnonane,---,248.35427132890877,ML
CCCCCC(C)C(Br)CC,2,4.280796407719208,1827.4561,194.738,101.85,264.45,C10H21Br,3-bromo-4-methylnonane,---,250.32059282407764,ML
CCCCC(C)CC(Br)CC,2,4.280796407719208,1827.4561,194.738,101.85,264.45,C10H21Br,3-bromo-5-methylnonane,---,249.80110055370287,ML
CCCC(C)CCC(Br)CC,2,4.280796407719208,1827.4561,194.738,101.85,264.45,C10H21Br,3-bromo-6-methylnonane,---,249.50308136153186,ML
CCC(C)CCCC(Br)CC,2,4.280796407719208,1827.4561,194.738,101.85,264.45,C10H21Br,3-bromo-7-methylnonane,---,249.2393885912605,ML
CCC(Br)CCCCC(C)C,2,4.280796407719208,1827.4561,194.738,101.85,264.45,C10H21Br,3-bromo-8-methylnonane,---,249.48283246028015,ML
CCCCCCCCCCCl,"1,2",4.872436407719209,2028.2595,193.272,107.07,250.41,C10H21Cl,1-chlorodecane,1002-69-3,241.85,Yaw
CCCCCCCCC(C)Cl,2,4.310666407719209,1821.0278,196.052,98.07,258.11,C10H21Cl,2-chlorodecane,---,241.85,Yaw
CCCCCCCC(Cl)CC,2,4.310666407719209,1821.0278,196.052,98.07,258.11,C10H21Cl,3-chlorodecane,---,241.85,Yaw
CCCCCCC(Cl)CCC,2,4.310666407719209,1821.0278,196.052,98.07,258.11,C10H21Cl,4-chlorodecane,---,241.85,Yaw
CCCCCC(Cl)CCCC,2,4.310666407719209,1821.0278,196.052,98.07,258.11,C10H21Cl,5-chlorodecane,---,241.85,Yaw
CCCCCCCC(C)CCl,2,4.315156407719209,1822.7693,196.016,98.17,258.07,C10H21Cl,1-chloro-2-methylnonane,---,241.85,Yaw
CCCCCCC(C)CCCl,2,4.315156407719209,1822.7693,196.016,98.17,258.07,C10H21Cl,1-chloro-3-methylnonane,---,241.85,Yaw
CCCCCC(C)CCCCl,2,4.315156407719209,1822.7693,196.016,98.17,258.07,C10H21Cl,1-chloro-4-methylnonane,---,241.85,Yaw
CCCCC(C)CCCCCl,2,4.315156407719209,1822.7693,196.016,98.17,258.07,C10H21Cl,1-chloro-5-methylnonane,---,241.85,Yaw
CCCC(C)CCCCCCl,2,4.315156407719209,1822.7693,196.016,98.17,258.07,C10H21Cl,1-chloro-6-methylnonane,---,241.85,Yaw
CCC(C)CCCCCCCl,2,4.315156407719209,1822.7693,196.016,98.17,258.07,C10H21Cl,1-chloro-7-methylnonane,---,241.85,Yaw
CC(C)CCCCCCCCl,2,4.315156407719209,1822.7693,196.016,98.17,258.07,C10H21Cl,1-chloro-8-methylnonane,---,241.85,Yaw
CCCCCCCC(C)(C)Cl,2,3.989666407719208,1696.3722,198.796,90.17,261.09,C10H21Cl,2-chloro-2-methylnonane,---,241.85,Yaw
CCCCCCC(C)C(C)Cl,2,3.989666407719208,1696.3722,198.796,90.17,261.09,C10H21Cl,2-chloro-3-methylnonane,---,241.85,Yaw
CCCCCC(C)CC(C)Cl,2,3.989666407719208,1696.3722,198.796,90.17,261.09,C10H21Cl,2-chloro-4-methylnonane,---,241.85,Yaw
CCCCC(C)CCC(C)Cl,2,3.989666407719208,1696.3722,198.796,90.17,261.09,C10H21Cl,2-chloro-5-methylnonane,---,241.85,Yaw
CCCC(C)CCCC(C)Cl,2,3.989666407719208,1696.3722,198.796,90.17,261.09,C10H21Cl,2-chloro-6-methylnonane,---,241.85,Yaw
CCC(C)CCCCC(C)Cl,2,3.989666407719208,1696.3722,198.796,90.17,261.09,C10H21Cl,2-chloro-7-methylnonane,---,241.85,Yaw
CC(C)CCCCCC(C)Cl,2,3.989666407719208,1696.3722,198.796,90.17,261.09,C10H21Cl,2-chloro-8-methylnonane,---,241.85,Yaw
CCCCCCC(Cl)C(C)C,2,3.989666407719208,1696.3722,198.796,90.17,261.09,C10H21Cl,3-chloro-2-methylnonane,---,241.85,Yaw
CCCCCCC(C)(Cl)CC,2,3.989666407719208,1696.3722,198.796,90.17,261.09,C10H21Cl,3-chloro-3-methylnonane,---,241.85,Yaw
CCCCCC(C)C(Cl)CC,2,3.989666407719208,1696.3722,198.796,90.17,261.09,C10H21Cl,3-chloro-4-methylnonane,---,241.85,Yaw
CCCCC(C)CC(Cl)CC,2,3.989666407719208,1696.3722,198.796,90.17,261.09,C10H21Cl,3-chloro-5-methylnonane,---,241.85,Yaw
CCCC(C)CCC(Cl)CC,2,3.989666407719208,1696.3722,198.796,90.17,261.09,C10H21Cl,3-chloro-6-methylnonane,---,241.85,Yaw
CCC(C)CCCC(Cl)CC,2,3.989666407719208,1696.3722,198.796,90.17,261.09,C10H21Cl,3-chloro-7-methylnonane,---,241.85,Yaw
CCC(Cl)CCCCC(C)C,2,3.989666407719208,1696.3722,198.796,90.17,261.09,C10H21Cl,3-chloro-8-methylnonane,---,241.85,Yaw
CCCCCCCCCCF,"1,2",4.401716407719209,1719.0923,204.301,69.33,214.92,C10H21F,1-fluorodecane,334-56-5,238.15,Yaw
CCCCCCCCC(C)F,2,3.658496407719209,1486.2331,207.136,61.17,235.53,C10H21F,2-fluorodecane,---,226.45359457874656,ML
CCCCCCCC(F)CC,2,3.658496407719209,1486.2331,207.136,61.17,235.53,C10H21F,3-fluorodecane,---,226.25732695508825,ML
CCCCCCC(F)CCC,2,3.658496407719209,1486.2331,207.136,61.17,235.53,C10H21F,4-fluorodecane,---,225.5936622589795,ML
CCCCCC(F)CCCC,2,3.658496407719209,1486.2331,207.136,61.17,235.53,C10H21F,5-fluorodecane,---,225.73050905696326,ML
CCCCCCCC(C)CF,2,3.658496407719209,1486.2331,207.136,61.17,235.53,C10H21F,1-fluoro-2-methylnonane,---,226.27576742667586,ML
CCCCCCC(C)CCF,2,3.658496407719209,1486.2331,207.136,61.17,235.53,C10H21F,1-fluoro-3-methylnonane,---,225.4732041824404,ML
CCCCCC(C)CCCF,2,3.658496407719209,1486.2331,207.136,61.17,235.53,C10H21F,1-fluoro-4-methylnonane,---,226.63019136846324,ML
CCCCC(C)CCCCF,2,3.658496407719209,1486.2331,207.136,61.17,235.53,C10H21F,1-fluoro-5-methylnonane,---,226.95796359469162,ML
CCCC(C)CCCCCF,2,3.658496407719209,1486.2331,207.136,61.17,235.53,C10H21F,1-fluoro-6-methylnonane,---,227.39695758029617,ML
CCC(C)CCCCCCF,2,3.658496407719209,1486.2331,207.136,61.17,235.53,C10H21F,1-fluoro-7-methylnonane,---,226.88469719524036,ML
CC(C)CCCCCCCF,2,3.390666407719209,1386.8551,209.916,53.17,238.96,C10H21F,1-fluoro-8-methylnonane,---,226.71190142420573,ML
CCCCCCCC(C)(C)F,2,3.390666407719209,1386.8551,209.916,53.17,238.96,C10H21F,2-fluoro-2-methylnonane,---,225.27104326553237,ML
CCCCCCC(C)C(C)F,2,3.390666407719209,1386.8551,209.916,53.17,238.96,C10H21F,2-fluoro-3-methylnonane,---,220.30764737601157,ML
CCCCCC(C)CC(C)F,2,3.390666407719209,1386.8551,209.916,53.17,238.96,C10H21F,2-fluoro-4-methylnonane,---,222.8358580934408,ML
CCCCC(C)CCC(C)F,2,3.390666407719209,1386.8551,209.916,53.17,238.96,C10H21F,2-fluoro-5-methylnonane,---,222.15956079168973,ML
CCCC(C)CCCC(C)F,2,3.390666407719209,1386.8551,209.916,53.17,238.96,C10H21F,2-fluoro-6-methylnonane,---,223.51671213415534,ML
CCC(C)CCCCC(C)F,2,3.390666407719209,1386.8551,209.916,53.17,238.96,C10H21F,2-fluoro-7-methylnonane,---,222.825441475155,ML
CC(C)CCCCCC(C)F,2,3.390666407719209,1386.8551,209.916,53.17,238.96,C10H21F,2-fluoro-8-methylnonane,---,222.56137260913542,ML
CCCCCCC(F)C(C)C,2,3.390666407719209,1386.8551,209.916,53.17,238.96,C10H21F,3-fluoro-2-methylnonane,---,222.78649839772507,ML
CCCCCCC(C)(F)CC,2,3.390666407719209,1386.8551,209.916,53.17,238.96,C10H21F,3-fluoro-3-methylnonane,---,221.995468835162,ML
CCCCCC(C)C(F)CC,2,3.390666407719209,1386.8551,209.916,53.17,238.96,C10H21F,3-fluoro-4-methylnonane,---,220.24516283267235,ML
CCCCC(C)CC(F)CC,2,3.390666407719209,1386.8551,209.916,53.17,238.96,C10H21F,3-fluoro-5-methylnonane,---,222.42267138590387,ML
CCCC(C)CCC(F)CC,2,3.390666407719209,1386.8551,209.916,53.17,238.96,C10H21F,3-fluoro-6-methylnonane,---,221.56078357076595,ML
CCC(C)CCCC(F)CC,2,3.390666407719209,1386.8551,209.916,53.17,238.96,C10H21F,3-fluoro-7-methylnonane,---,222.35420611454506,ML
CCC(F)CCCCC(C)C,2,3.390666407719209,1386.8551,209.916,53.17,238.96,C10H21F,3-fluoro-8-methylnonane,---,222.5904308389867,ML
CCCCCCCCCCI,"1,2",3.9630764077192087,1835.4833,182.756,131.33,318.46,C10H21I,1-iododecane,2050-77-3,256.85,Yaw
CCCCCCCCC(C)I,2,4.660096407719209,2017.8735,185.73,122.77,277.18,C10H21I,2-iododecane,---,260.4406883867341,ML
CCCCCCCC(I)CC,2,4.660096407719209,2017.8735,185.73,122.77,277.18,C10H21I,3-iododecane,---,259.45821531870496,ML
CCCCCCC(I)CCC,2,4.660096407719209,2017.8735,185.73,122.77,277.18,C10H21I,4-iododecane,---,260.128842600704,ML
CCCCCC(I)CCCC,2,4.660096407719209,2017.8735,185.73,122.77,277.18,C10H21I,5-iododecane,---,259.5683866458669,ML
CCCCCCCC(C)CI,2,4.660096407719209,2017.8735,185.73,122.77,277.18,C10H21I,1-iodo-2-methylnonane,---,257.3004913266352,ML
CCCCCCC(C)CCI,2,4.660096407719209,2017.8735,185.73,122.77,277.18,C10H21I,1-iodo-3-methylnonane,---,259.5591636113786,ML
CCCCCC(C)CCCI,2,4.660096407719209,2017.8735,185.73,122.77,277.18,C10H21I,1-iodo-4-methylnonane,---,260.8839558841862,ML
CCCCC(C)CCCCI,2,4.660096407719209,2017.8735,185.73,122.77,277.18,C10H21I,1-iodo-5-methylnonane,---,261.2952234400938,ML
CCCC(C)CCCCCI,2,4.660096407719209,2017.8735,185.73,122.77,277.18,C10H21I,1-iodo-6-methylnonane,---,261.17448607049204,ML
CCC(C)CCCCCCI,2,4.660096407719209,2017.8735,185.73,122.77,277.18,C10H21I,1-iodo-7-methylnonane,---,260.7645971964253,ML
CC(C)CCCCCCCI,2,4.660096407719209,2017.8735,185.73,122.77,277.18,C10H21I,1-iodo-8-methylnonane,---,260.65154403213575,ML
CCCCCCCC(C)(C)I,2,4.304666407719209,1875.9341,188.51,114.77,280.05,C10H21I,2-iodo-2-methylnonane,---,262.28094115645007,ML
CCCCCCC(C)C(C)I,2,4.304666407719209,1875.9341,188.51,114.77,280.05,C10H21I,2-iodo-3-methylnonane,---,259.2764093130033,ML
CCCCCC(C)CC(C)I,2,4.304666407719209,1875.9341,188.51,114.77,280.05,C10H21I,2-iodo-4-methylnonane,---,258.92559322589983,ML
CCCCC(C)CCC(C)I,2,4.304666407719209,1875.9341,188.51,114.77,280.05,C10H21I,2-iodo-5-methylnonane,---,259.71465460931887,ML
CCCC(C)CCCC(C)I,2,4.304666407719209,1875.9341,188.51,114.77,280.05,C10H21I,2-iodo-6-methylnonane,---,259.62888088415303,ML
CCC(C)CCCCC(C)I,2,4.304666407719209,1875.9341,188.51,114.77,280.05,C10H21I,2-iodo-7-methylnonane,---,259.57887791956136,ML
CC(C)CCCCCC(C)I,2,4.304666407719209,1875.9341,188.51,114.77,280.05,C10H21I,2-iodo-8-methylnonane,---,259.52061063820673,ML
CCCCCCC(I)C(C)C,2,4.304666407719209,1875.9341,188.51,114.77,280.05,C10H21I,3-iodo-2-methylnonane,---,259.4832452357369,ML
CCCCCCC(C)(I)CC,2,4.304666407719209,1875.9341,188.51,114.77,280.05,C10H21I,3-iodo-3-methylnonane,---,258.66839960599197,ML
CCCCCC(C)C(I)CC,2,4.304666407719209,1875.9341,188.51,114.77,280.05,C10H21I,3-iodo-4-methylnonane,---,258.61777386779494,ML
CCCCC(C)CC(I)CC,2,4.304666407719209,1875.9341,188.51,114.77,280.05,C10H21I,3-iodo-5-methylnonane,---,256.73193816062206,ML
CCCC(C)CCC(I)CC,2,4.304666407719209,1875.9341,188.51,114.77,280.05,C10H21I,3-iodo-6-methylnonane,---,258.0996468795767,ML
CCC(C)CCCC(I)CC,2,4.304666407719209,1875.9341,188.51,114.77,280.05,C10H21I,3-iodo-7-methylnonane,---,257.6931568903574,ML
CCC(I)CCCCC(C)C,2,4.304666407719209,1875.9341,188.51,114.77,280.05,C10H21I,3-iodo-8-methylnonane,---,258.57528391925,ML
CCN(CC)C1CCCCC1,"1,2",4.214236407719208,1674.056,202.688,71.97,225.11,C10H21N,cyclohexyldiethylamine,91-65-6,258.390723971142,ML
CNC(C)CC1CCCCC1,2,4.176056407719209,1704.6725,199.074,82.37,240.84,C10H21N,"N,alpha-dimethylcyclohexaneethanamine",101-40-6,295.525245126887,ML
CN1C(C)(C)CCCC1(C)C,"1,2",3.100076407719208,1248.5524,215.198,35.47,230.86,C10H21N,"1,2,2,6,6-pentamethylpiperidine",79-55-0,274.0105993257677,ML
CCCCCN1CCCCC1,"1,2",4.284536407719209,1710.2348,200.965,76.43,228.36,C10H21N,1-pentylpiperidine,10324-58-0,263.34058756166263,ML
CC(C)(C)NC1CCCCC1,2,3.2681664077192085,1363.1417,207.97,56.77,251.44,C10H21N,N-tert-butylcyclohexylamine,51609-06-4,303.6085024768261,ML
CCCCN(CCCC)C(C)=O,2,5.199536407719208,2221.2293,186.147,127.57,267.3,C10H21NO,"N,N-dibutylacetamide",1563-90-2,269.58820494148335,ML
CCCCCCCCCC[N+](=O)[O-],2,4.3598764077192085,1980.0853,182.116,135.17,305.73,C10H21NO2,1-nitrodecane,4609-87-4,294.82138427732315,ML
CCCCCCCCCCO[N+](=O)[O-],2,3.703376407719209,1646.4971,193.0,101.85,290.93,C10H21NO3,decyl nitrate,2050-78-4,256.0984576529606,ML
CCCCCCCCCC,"1,2",4.3395364077192085,1694.6279,216.459,55.97,203.16,C10H22,decane,124-18-5,243.5,Yaw
CCCCCCCC(C)C,"1,2",4.248396407719208,1599.7485,209.553,51.45,195.72,C10H22,2-methylnonane,871-83-0,198.5,Yaw
CCCCCCC(C)CC,"1,2",4.2946764077192086,1649.3318,216.241,50.84,196.75,C10H22,3-methylnonane,5911-04-6,188.35,Yaw
CCCCCC(C)CCC,"1,2",4.384926407719209,1726.1562,227.957,47.53,194.72,C10H22,4-methylnonane,17301-94-9,174.45,Yaw
CCCCC(C)CCCC,"1,2",4.289506407719209,1641.1357,217.443,48.53,194.03,C10H22,5-methylnonane,15869-85-9,185.45,Yaw
CCCCCCC(C)(C)C,"1,2",4.245046407719209,1602.0606,220.495,41.03,185.7,C10H22,"2,2-dimethyloctane",15869-87-1,216.83,Yaw
CCCCCC(C)C(C)C,"1,2",4.179246407719209,1565.5059,210.271,48.06,193.4,C10H22,"2,3-dimethyloctane",7146-60-3,190.0,Yaw
CCCCC(C)CC(C)C,"1,2",4.142176407719209,1501.2548,206.532,42.72,184.3,C10H22,"2,4-dimethyloctane",4032-94-4,190.0,Yaw
CCCC(C)CCC(C)C,"1,2",4.176946407719209,1538.087,209.733,44.17,187.1,C10H22,"2,5-dimethyloctane",15869-89-3,188.65,Yaw
CCC(C)CCCC(C)C,"1,2",4.281966407719208,1617.8748,217.454,45.07,188.95,C10H22,"2,6-dimethyloctane",2051-30-1,220.0,Yaw
CC(C)CCCCC(C)C,"1,2",4.130776407719209,1499.4611,203.117,46.31,188.41,C10H22,"2,7-dimethyloctane",1072-16-8,219.15,Yaw
CCCCCC(C)(C)CC,"1,2",4.150966407719209,1546.9455,211.461,45.0,190.35,C10H22,"3,3-dimethyloctane",4110-44-5,219.16,Yaw
CCCCC(C)C(C)CC,"1,2",4.1880464077192086,1571.9518,211.933,47.09,192.48,C10H22,"3,4-dimethyloctane",15869-92-8,219.16,Yaw
CCCC(C)CC(C)CC,"1,2",4.184276407719208,1552.3799,211.593,44.36,188.17,C10H22,"3,5-dimethyloctane",15869-93-9,219.16,Yaw
CCC(C)CCC(C)CC,"1,2",4.160206407719208,1535.7031,208.331,45.88,189.6,C10H22,"3,6-dimethyloctane",15869-94-0,219.16,Yaw
CCCCC(C)(C)CCC,"1,2",4.143926407719209,1530.758,211.888,42.19,186.45,C10H22,"4,4-dimethyloctane",15869-95-1,219.16,Yaw
CCCC(C)C(C)CCC,"1,2",4.198166407719208,1576.6346,213.413,45.95,191.15,C10H22,"4,5-dimethyloctane",15869-96-2,219.16,Yaw
CCCCC(C)C(C)(C)C,"1,2",4.100706407719208,1511.3193,210.941,41.72,186.81,C10H22,"2,2,3-trimethylheptane",52896-92-1,219.16,Yaw
CCCC(C)CC(C)(C)C,"1,2",4.084106407719209,1462.8763,209.877,35.37,176.81,C10H22,"2,2,4-trimethylheptane",14720-74-2,219.16,Yaw
CCC(C)CCC(C)(C)C,"1,2",4.080716407719208,1468.3011,209.004,37.29,179.47,C10H22,"2,2,5-trimethylheptane",20291-95-6,219.16,Yaw
CC(C)CCCC(C)(C)C,"1,2",4.041636407719209,1424.006,203.394,37.05,177.29,C10H22,"2,2,6-trimethylheptane",1190-83-6,219.16,Yaw
CCCCC(C)(C)C(C)C,"1,2",4.111346407719209,1531.9612,212.408,43.25,189.65,C10H22,"2,3,3-trimethylheptane",52896-93-2,219.16,Yaw
CCCC(C)C(C)C(C)C,"1,2",4.1530664077192085,1550.6796,213.471,43.52,189.09,C10H22,"2,3,4-trimethylheptane",52896-95-4,219.16,Yaw
CCC(C)CC(C)C(C)C,"1,2",4.1798364077192085,1577.5677,216.713,43.58,190.0,C10H22,"2,3,5-trimethylheptane",20278-85-7,219.16,Yaw
CC(C)CCC(C)C(C)C,"1,2",4.117086407719208,1501.7382,208.748,41.63,184.78,C10H22,"2,3,6-trimethylheptane",4032-93-3,219.16,Yaw
CCCC(C)(C)CC(C)C,"1,2",4.116526407719209,1501.6735,213.781,36.61,179.79,C10H22,"2,4,4-trimethylheptane",4032-92-2,219.16,Yaw
CCC(C)C(C)CC(C)C,"1,2",4.142796407719208,1528.4981,212.444,41.31,185.42,C10H22,"2,4,5-trimethylheptane",20278-84-6,219.16,Yaw
CC(C)CC(C)CC(C)C,"1,2",4.090786407719208,1445.5863,205.766,36.31,175.68,C10H22,"2,4,6-trimethylheptane",2613-61-8,219.16,Yaw
CCC(C)(C)CCC(C)C,"1,2",4.085906407719208,1480.7501,209.595,38.57,181.63,C10H22,"2,5,5-trimethylheptane",1189-99-7,219.16,Yaw
CCCC(C)C(C)(C)CC,"1,2",4.124356407719208,1552.2577,214.453,44.03,191.54,C10H22,"3,3,4-trimethylheptane",20278-87-9,219.16,Yaw
CCC(C)CC(C)(C)CC,"1,2",4.178446407719209,1554.9958,216.447,40.18,184.59,C10H22,"3,3,5-trimethylheptane",7154-80-5,165.0,Yaw
CCCC(C)(C)C(C)CC,"1,2",4.130776407719209,1554.9593,215.323,43.34,190.7,C10H22,"3,4,4-trimethylheptane",20278-88-0,219.16,Yaw
CCC(C)C(C)C(C)CC,"1,2",4.248896407719209,1626.1669,220.217,45.08,191.69,C10H22,"3,4,5-trimethylheptane",20278-89-1,219.16,Yaw
CCCC(C)(C)C(C)(C)C,"1,2",4.178136407719209,1581.6209,218.217,42.82,189.72,C10H22,"2,2,3,3-tetramethylhexane",13475-81-5,219.16,Yaw
CCC(C)C(C)C(C)(C)C,"1,2",4.102616407719209,1543.3527,217.378,40.56,188.6,C10H22,"2,2,3,4-tetramethylhexane",52897-08-2,219.16,Yaw
CC(C)CC(C)C(C)(C)C,"1,2",4.031056407719209,1438.4234,208.425,34.89,177.21,C10H22,"2,2,3,5-tetramethylhexane",52897-09-3,219.16,Yaw
CCC(C)(C)CC(C)(C)C,"1,2",4.145596407719209,1579.5254,227.203,34.9,183.64,C10H22,"2,2,4,4-tetramethylhexane",51750-65-3,219.16,Yaw
CC(C)C(C)CC(C)(C)C,"1,2",4.067936407719209,1468.8955,213.201,33.72,176.75,C10H22,"2,2,4,5-tetramethylhexane",16747-42-5,219.16,Yaw
CC(C)(C)CCC(C)(C)C,"1,2",4.061706407719209,1408.2935,209.264,27.72,165.21,C10H22,"2,2,5,5-tetramethylhexane",1071-81-4,260.55,Yaw
CCC(C)C(C)(C)C(C)C,"1,2",4.099336407719209,1562.4524,216.548,44.73,194.81,C10H22,"2,3,3,4-tetramethylhexane",52897-10-6,260.56,Yaw
CC(C)CC(C)(C)C(C)C,"1,2",4.066696407719209,1488.3047,212.864,37.38,182.37,C10H22,"2,3,3,5-tetramethylhexane",52897-11-7,260.56,Yaw
CCC(C)(C)C(C)C(C)C,"1,2",4.100096407719208,1552.9929,217.16,42.5,191.62,C10H22,"2,3,4,4-tetramethylhexane",52897-12-8,260.56,Yaw
CC(C)C(C)C(C)C(C)C,"1,2",4.090936407719209,1504.0869,211.454,40.41,185.41,C10H22,"2,3,4,5-tetramethylhexane",52897-15-1,260.56,Yaw
CCC(C)(C)C(C)(C)CC,"1,2",4.102526407719209,1603.3997,220.822,47.16,200.96,C10H22,"3,3,4,4-tetramethylhexane",5171-84-6,260.56,Yaw
CC(C)C(C)(C)C(C)(C)C,"1,2",4.051136407719208,1548.6443,216.214,44.85,196.75,C10H22,"2,2,3,3,4-pentamethylpentane",16747-44-7,236.71,Yaw