smiles,code,A [log10(atm)],B [C],C [C],TMIN [C],TMAX [C],FORMULA,NAME,CAS No,mp [K],mp_type
CCCCC(CCC)OC,2,4.334236407719208,1629.5084,213.058,49.13,190.97,C9H20O,4-methoxy-octane,---,204.85,Yaw
CCCCCCCOCC,2,4.839926407719209,1804.4269,209.916,58.57,187.63,C9H20O,1-ethoxy-heptane,1969-43-3,204.85,Yaw
CCCCCC(C)OCC,2,4.334236407719208,1629.5084,213.058,49.13,190.97,C9H20O,2-ethoxy-heptane,---,204.85,Yaw
CCCCC(CC)OCC,2,4.334236407719208,1629.5084,213.058,49.13,190.97,C9H20O,3-ethoxy-heptane,---,204.85,Yaw
CCCC(CCC)OCC,2,4.334236407719208,1629.5084,213.058,49.13,190.97,C9H20O,4-ethoxy-heptane,---,204.85,Yaw
CCCCCCOCCC,2,4.786696407719209,1785.3802,210.083,57.69,187.94,C9H20O,1-propoxy-hexane,---,204.85,Yaw
CCCCC(C)OCCC,2,4.334236407719208,1629.5084,213.058,49.13,190.97,C9H20O,2-propoxy-hexane,---,204.85,Yaw
CCCOC(CC)CCC,2,4.334236407719208,1629.5084,213.058,49.13,190.97,C9H20O,3-propoxy-hexane,---,204.85,Yaw
CCCCCCOC(C)C,2,4.2419364077192085,1597.6393,213.725,47.21,191.67,C9H20O,1-isopropoxy-hexane,---,204.85,Yaw
CCCCC(C)OC(C)C,2,4.2419364077192085,1597.6393,213.725,47.21,191.67,C9H20O,2-isopropoxy-hexane,---,204.85,Yaw
CCCC(CC)OC(C)C,2,4.2419364077192085,1597.6393,213.725,47.21,191.67,C9H20O,3-isopropoxy-hexane,---,204.85,Yaw
CCCCCCCC(O)CO,3,5.669796407719209,2471.2113,182.116,145.17,278.18,C9H20O2,"1,2-nonanediol",42789-13-9,317.55,Yaw
CCCCCCC(O)CCO,3,6.2781364077192094,2717.1625,179.058,153.97,275.54,C9H20O2,"1,3-nonanediol",23433-07-0,317.55,Yaw
CCCCCC(O)CCCO,3,7.797866407719209,3329.3719,173.22,170.77,270.88,C9H20O2,"1,4-nonanediol",2430-73-1,317.55,Yaw
OCCCCCCCCCO,3,6.792596407719209,2924.7114,176.834,160.37,273.71,C9H20O2,"1,9-nonanediol",3937-56-2,318.15,Yaw
CCCCC(CC)(CO)CO,3,5.472336407719208,2391.2304,183.228,141.97,279.18,C9H20O2,"2-butyl-2-ethyl-1,3-propanediol",115-84-4,314.25,Yaw
CCCCCCCOCCO,3,6.488396407719209,2650.0611,187.251,129.39,241.05,C9H20O2,heptyloxyethanol,7409-44-1,235.32194977671261,ML
CCCCC(CC)OCCO,3,6.488396407719209,2650.0611,187.251,129.39,241.05,C9H20O2,2-(1-ethylamyloxy)ethanol,10138-47-3,233.5914173439876,ML
CCCC(CC)OC(C)CO,3,6.488396407719209,2650.0611,187.251,129.39,241.05,C9H20O2,"2-ethylbutoxypropanol, mixed isomers",63716-41-6,238.6919533674999,ML
CCCCCCCCOS(=O)(=O)OC,3,3.1014264077192086,1543.2543,181.869,127.88,369.21,C9H20O4S,methyl octyl sulfate,3539-29-5,256.9856462965231,ML
CCCCCCCCCS,"1,2",4.709496407719208,1954.4874,194.96,101.61,248.39,C9H20S,1-nonanethiol,1455-21-6,253.05,Yaw
CCCCCCCC(C)S,2,4.408476407719209,1827.1319,198.185,92.33,246.65,C9H20S,2-nonanethiol,13281-11-3,204.15,Yaw
CCCCCCC(S)CC,2,4.352346407719208,1805.0784,198.463,91.13,247.09,C9H20S,3-nonanethiol,---,228.6,Yaw
CCCCCC(S)CCC,2,4.316906407719209,1791.5796,198.741,90.33,247.38,C9H20S,4-nonanethiol,---,228.6,Yaw
CCCCC(S)CCCC,2,4.2819164077192085,1778.2468,199.019,89.53,247.68,C9H20S,5-nonanethiol,---,228.6,Yaw
CCCCCCC(C)CS,2,4.5595064077192085,1883.8963,196.906,95.61,245.48,C9H20S,2-methyl-1-octanethiol,---,228.6,Yaw
CCCCCC(C)CCS,2,4.521396407719209,1869.4056,197.184,94.81,245.76,C9H20S,3-methyl-1-octanethiol,---,228.6,Yaw
CCCCC(C)CCCS,2,4.483776407719208,1855.1001,197.462,94.01,246.05,C9H20S,4-methyl-1-octanethiol,---,228.6,Yaw
CCCC(C)CCCCS,2,4.446656407719209,1840.9761,197.74,93.21,246.34,C9H20S,5-methyl-1-octanethiol,---,228.6,Yaw
CCC(C)CCCCCS,2,4.410006407719209,1827.0302,198.018,92.41,246.63,C9H20S,6-methyl-1-octanethiol,---,228.6,Yaw
CC(C)CCCCCCS,2,4.3738364077192085,1813.2588,198.296,91.61,246.92,C9H20S,7-methyl-1-octanethiol,---,228.6,Yaw
CCCCCCC(C)(C)S,2,4.302856407719209,1786.2267,198.852,90.01,247.5,C9H20S,2-methyl-2-octanethiol,---,228.6,Yaw
CCCCCC(C)C(C)S,2,4.268036407719209,1772.9595,199.13,89.21,247.8,C9H20S,3-methyl-2-octanethiol,---,228.6,Yaw
CCCCC(C)CC(C)S,2,4.2336564077192085,1759.8541,199.408,88.41,248.09,C9H20S,4-methyl-2-octanethiol,---,228.6,Yaw
CCCC(C)CCC(C)S,2,4.199706407719209,1746.9073,199.686,87.61,248.39,C9H20S,5-methyl-2-octanethiol,---,228.6,Yaw
CCC(C)CCCC(C)S,2,4.166166407719208,1734.1164,199.964,86.81,248.69,C9H20S,6-methyl-2-octanethiol,---,228.6,Yaw
CC(C)CCCCC(C)S,2,4.133046407719209,1721.4784,200.242,86.01,248.99,C9H20S,7-methyl-2-octanethiol,---,228.6,Yaw
CCCCCCCCSC,2,5.4500364077192085,2134.9659,195.46,95.77,219.18,C9H20S,2-thiadecane,3698-95-1,225.76,Yaw
CCCCCCCSCC,2,4.971886407719208,1961.0529,198.154,88.02,221.69,C9H20S,3-thiadecane,24768-44-3,225.76,Yaw
CCCCCCSCCC,2,4.926416407719208,1944.4859,198.432,87.22,221.96,C9H20S,4-thiadecane,24768-43-2,225.76,Yaw
CCCCCSCCCC,2,4.881606407719208,1928.1552,198.71,86.42,222.23,C9H20S,5-thiadecane,24768-42-1,225.76,Yaw
CCCCCCC(C)SC,2,4.585306407719209,1820.0448,200.656,80.82,224.16,C9H20S,3-methyl-2-thianonane,---,225.76,Yaw
CCCCCC(C)CSC,2,4.545306407719209,1805.4319,200.934,80.02,224.45,C9H20S,4-methyl-2-thianonane,---,225.76,Yaw
CCCCC(C)CCSC,2,4.505856407719208,1791.0141,201.212,79.22,224.73,C9H20S,5-methyl-2-thianonane,---,225.76,Yaw
CCCC(C)CCCSC,2,4.466936407719208,1776.7874,201.49,78.42,225.02,C9H20S,6-methyl-2-thianonane,---,225.76,Yaw
CCCCCCSC(C)C,2,4.545306407719209,1805.4319,200.934,80.02,224.45,C9H20S,2-methyl-3-thianonane,---,225.76,Yaw
CCCCCC(C)SCC,2,4.505856407719208,1791.0141,201.212,79.22,224.73,C9H20S,4-methyl-3-thianonane,---,225.76,Yaw
CCCCC(C)CSCC,2,4.466936407719208,1776.7874,201.49,78.42,225.02,C9H20S,5-methyl-3-thianonane,---,225.76,Yaw
CCCC(C)CCSCC,2,4.4285464077192085,1762.7479,201.768,77.62,225.3,C9H20S,6-methyl-3-thianonane,---,225.76,Yaw
SCCCCCCCCCS,2,3.957016407719209,1884.5854,177.856,144.85,337.62,C9H20S2,"1,9-nonanedithiol",3489-28-9,269.9914809885407,ML
CC(S)CCCCCCCS,2,3.9438364077192087,1876.4717,177.39,144.77,337.73,C9H20S2,"1,8-nonanedithiol",---,265.08897827840786,ML
CCC(S)CCCCCCS,2,3.917056407719208,1864.8156,177.668,143.97,338.04,C9H20S2,"1,7-nonanedithiol",---,262.59102984754094,ML
CCCC(S)CCCCCS,2,3.890546407719208,1853.2762,177.946,143.17,338.36,C9H20S2,"1,6-nonanedithiol",---,260.54347523561665,ML
CCCCC(S)CCCCS,2,3.8643064077192086,1841.8516,178.224,142.37,338.67,C9H20S2,"1,5-nonanedithiol",---,261.1285150935565,ML
CCCCCC(S)CCCS,2,3.8383364077192086,1830.5401,178.502,141.57,338.99,C9H20S2,"1,4-nonanedithiol",---,263.7918839807289,ML
CCCCCCC(S)CCS,2,3.812626407719209,1819.3399,178.78,140.77,339.31,C9H20S2,"1,3-nonanedithiol",---,268.81627929563484,ML
CCCCCCCC(S)CS,2,3.787176407719208,1808.2494,179.058,139.97,339.64,C9H20S2,"1,2-nonanedithiol",---,208.16,Yaw
CCCCCCCCSSC,2,4.556366407719208,1978.4599,185.811,121.54,279.13,C9H20S2,"2,3-dithiaundecane",---,208.16,Yaw
CCCCCCCSSCC,2,4.4843364077192085,1949.6762,186.367,119.94,279.69,C9H20S2,"3,4-dithiaundecane",---,208.16,Yaw
CCCCCCSSCCC,2,4.414076407719208,1921.5838,186.923,118.34,280.27,C9H20S2,"4,5-dithiaundecane",---,208.16,Yaw
CCCCCSSCCCC,2,4.345526407719209,1894.1576,187.479,116.74,280.85,C9H20S2,"5,6-dithiaundecane",---,208.16,Yaw
CCCCCCCSCSC,2,4.945606407719208,2133.7258,183.031,129.54,276.37,C9H20S2,"2,4-dithiaundecane",---,208.16,Yaw
CCCCCCSCSCC,2,4.863616407719209,2101.0591,183.587,127.94,276.91,C9H20S2,"3,5-dithiaundecane",---,208.16,Yaw
CCCCCSCSCCC,2,4.783786407719209,2069.2309,184.143,126.34,277.46,C9H20S2,"4,6-dithiaundecane",---,208.16,Yaw
CC(C)OB(OC(C)C)OC(C)C,3,4.363436407719209,1558.3764,217.144,32.43,166.46,C9H21BO3,triisopropyl borate,5419-55-6,239.41584133823554,ML
CCCSB(SCCC)SCCC,3,7.439286407719209,3980.0,273.15,149.85,284.41,C9H21BS3,tripropyl trithioborate,998-38-9,333.32565641524775,ML
CCC[In](CCC)CCC,3,5.601186407719208,2716.8,273.15,89.96,239.44,C9H21In,tripropyl indium,3015-98-3,227.45873904027746,ML
CC(C)[In](C(C)C)C(C)C,3,5.572186407719208,2665.8,273.15,84.53,232.58,C9H21In,triisopropylindium,17144-80-8,225.51495106887185,ML
CCCCCCCCCN,"1,2",4.856346407719209,1946.9235,199.853,89.13,227.54,C9H21N,nonylamine,112-20-9,273.15,Yaw
CCCCCCCCNC,2,5.0466264077192085,1945.8607,204.162,76.73,205.87,C9H21N,methyloctylamine,2439-54-5,260.15,Yaw
CCCCCCCNCC,2,4.771566407719209,1847.7643,205.83,71.93,207.49,C9H21N,ethylheptylamine,66793-76-8,260.15,Yaw
CCC(C)(C)NC(C)(C)C,2,3.503066407719209,1392.2844,216.032,42.57,218.78,C9H21N,tert-amyl-tert-butylamine,2085-66-7,260.15,Yaw
CCCCCCCN(C)C,"1,2",4.8926264077192085,1850.6281,208.248,64.97,194.8,C9H21N,dimethylheptylamine,5277-11-2,195.45,Yaw
CCCCCN(CC)CC,"1,2",4.774886407719209,1762.8712,212.696,52.17,181.34,C9H21N,diethylpentylamine,2162-91-6,195.45,Yaw
CCCN(CCC)CCC,"1,2",4.828186407719208,1778.7389,212.557,52.57,180.35,C9H21N,tripropylamine,102-69-2,179.65,Yaw
CCCCN(C)CCCC,2,4.716776407719209,1759.877,211.696,55.05,186.85,C9H21N,N-methyldibutylamine,3405-45-6,211.25,Yaw
CCN(CC)CCCC(C)O,3,2.872486407719209,1391.1056,199.491,93.17,341.49,C9H21NO,5-diethylamino-2-pentanol,5412-69-1,285.73378396458224,ML
CC(C)N(CC(O)CO)C(C)C,3,4.022126407719209,1947.5773,187.63,142.3,335.76,C9H21NO2,"3-diisopropylamino-1,2-propanediol",85721-30-8,327.5326760011023,ML
CCN(CC)CCCC(C)N,"1,2",4.8067364077192085,1928.3981,200.186,88.17,227.8,C9H22N2,"N1,N1-diethyl-1,4-pentanediamine",140-80-7,310.65,Yaw
CCN(CC)CN(CC)CC,3,2.9284764077192085,1298.4215,209.972,37.5,284.2,C9H22N2,"N,N,N',N'-tetraethylmethanediamine",102-53-4,310.65,Yaw
NCCCCCCCCCN,"1,2",4.814256407719209,2131.5178,184.201,134.17,288.08,C9H22N2,"1,9-diaminononane",646-24-2,310.65,Yaw
CC(C)NCCCNC(C)C,3,4.1272364077192085,1774.2504,196.482,98.83,267.23,C9H22N2,"N,N'-diisopropyl-1,3-propanediamine",63737-71-3,310.65,Yaw
Fc1c(F)c(F)c2c(F)c(F)c(F)c(F)c2c1F,"1,2",3.2931464077192087,1126.4733,131.066,86.65,245.41,C10F8,perfluoronaphthalene,313-72-4,360.65,Yaw
FC1(F)C(F)(F)C(F)(F)[C@]2(F)C(F)(F)C(F)(F)C(F)(F)C(F)(F)[C@]2(F)C1(F)F,"1,2",4.044076407719209,1371.2446,197.575,33.86,168.77,C10F18,cis-perfluorodecalin,60433-11-6,266.65,Yaw
FC1(F)C(F)(F)C(F)(F)[C@]2(F)C(F)(F)C(F)(F)C(F)(F)C(F)(F)[C@@]2(F)C1(F)F,"1,2",3.953626407719209,1341.456,197.798,32.12,169.46,C10F18,trans-perfluorodecalin,60433-12-7,98.25,Yaw
FC(F)(F)C1(F)C(F)(F)C(F)(F)C(F)(C(F)(C(F)(F)F)C(F)(F)F)C(F)(F)C1(F)F,3,4.050826407719208,1401.145,199.716,36.5,173.94,C10F20,perfluoro(1-methyl-4-isopropylcyclohexane),116667-53-9,246.04359517343948,ML
FC(F)(F)C(F)(C(F)(F)F)C(F)(F)C1(F)C(F)(F)C(F)(F)C(F)(F)C(F)(F)C1(F)F,3,4.057006407719209,1380.329,198.014,34.45,169.49,C10F20,perfluoro(isobutyl-cyclohexane),132868-02-1,257.8069864641407,ML
FC(F)(F)C(F)(F)C(F)(F)C(F)(F)C(F)(F)C(F)(F)C(F)(F)C(F)(F)C(F)(F)C(F)(F)F,"1,2",4.666256407719208,1680.6765,215.977,40.73,169.04,C10F22,perfluorodecane,307-45-9,309.15,Yaw
FC(F)(F)C(F)(C(F)(F)F)C(F)(F)C(F)(F)C(F)(F)C(F)(F)C(F)(C(F)(F)F)C(F)(F)F,2,4.786076407719209,1710.74,216.032,40.57,165.4,C10F22,"perfluoro-2,7-dimethyloctane",3021-63-4,227.31271191229249,ML
O=C(O)C(F)(F)C(F)(Cl)C(F)(F)C(F)(Cl)C(F)(F)C(F)(Cl)C(F)(F)C(F)(Cl)C(F)(F)Cl,3,7.281286407719209,4209.0,273.15,186.24,329.84,C10HCl5F14O2,"3,5,7,9,10-pentachloro-tetradecafluoro-decanoic acid",335-74-0,361.74607250006403,ML
ClC1=C(Cl)C2(Cl)C3C(Cl)C(Cl)CC3C1(Cl)C2(Cl)Cl,3,2.8846564077192083,2190.5928,266.933,192.75,580.94,C10H6Cl8,a-chlordan,5103-71-9,379.15,Yaw
Brc1cccc2ccccc12,3,6.256816407719208,2777.5746,206.554,134.77,259.81,C10H7Br,1-bromonaphthalene,90-11-9,279.35,Yaw
Clc1cccc2ccccc12,"1,2",4.264606407719208,1932.0375,193.79,120.6,293.66,C10H7Cl,1-chloronaphthalene,90-13-1,269.15,Yaw
Clc1ccc2ccccc2c1,2,3.794106407719209,1718.7431,184.896,117.97,307.15,C10H7Cl,2-chloronaphthalene,91-58-7,331.15,Yaw
ClC1=C(Cl)C2(Cl)C3C(Cl)CCC3C1(Cl)C2(Cl)Cl,3,3.5687664077192087,2619.5105,273.15,207.53,528.48,C10H7Cl7,SD-10576,2589-15-3,375.60158558846615,ML
O=C(C=C(O)C(F)(F)F)c1ccccc1,3,9.479286407719208,4596.1,273.15,131.43,227.61,C10H7F3O2,"4,4,4-trifluoro-1-phenyl-1,3-dione",41463-86-9,349.5441905439164,ML
Cc1cccc(OC(=O)C(F)(F)C(F)(F)F)c1,3,5.104886407719208,2107.1,239.1,62.53,199.53,C10H7F5O2,"pentafluoropropanoic acid, 3-methylphenyl ester",24271-51-0,282.9538287976322,ML
Cc1ccc(OC(=O)C(F)(F)C(F)(F)F)cc1,3,4.758086407719208,1886.7,220.9,63.29,202.41,C10H7F5O2,"pentafluoropropanoic acid, 4-methylphenyl ester",24271-52-1,294.30075639407704,ML
Ic1cccc2ccccc12,"1,2",3.558906407719209,1717.3241,162.543,153.16,364.59,C10H7I,1-iodonaphthalene,90-14-2,275.25,Yaw
c1ccc2ccccc2c1,"1,2",4.047706407719208,1561.3175,168.879,80.28,247.84,C10H8,naphthalene,91-20-3,353.43,Yaw
c1ccc2cccc-2cc1,3,8.921286407719208,2873.2369,149.458,116.53,183.85,C10H8,azulene,275-51-4,373.0,Yaw
Oc1cccc2ccccc12,"1,2",4.067476407719209,1743.7978,149.668,137.2,313.31,C10H8O,1-naphthol,90-15-3,368.15,Yaw
Oc1ccc2ccccc2c1,"1,2",4.933256407719209,2472.447,215.63,140.7,318.12,C10H8O,2-naphthol,135-19-3,394.65,Yaw
CCOC(=O)COc1cc(Cl)c(Cl)cc1Cl,3,3.727086407719209,1659.1,110.27,170.85,373.99,C10H9Cl3O3,"ethyl 2,4,5-trichloro-phenoxyacetate",1928-39-8,337.9932296172995,ML
Cc1ccc2ccccc2n1,"1,2",4.299446407719208,1927.9583,201.57,110.38,280.61,C10H9N,2-methylquinoline,91-63-4,272.15,Yaw
Cc1cnc2ccccc2c1,"1,2",4.6397664077192085,2099.2651,203.951,117.99,279.89,C10H9N,3-methylquinoline,612-58-8,337.15,Yaw
Cc1ccnc2ccccc12,"1,2",4.475456407719209,1962.0492,176.552,132.13,293.46,C10H9N,4-methylquinoline,491-35-0,282.15,Yaw
Cc1cccc2ncccc12,"1,2",4.139126407719209,1827.9817,183.784,119.87,292.49,C10H9N,5-methylquinoline,7661-55-4,292.15,Yaw
Cc1ccc2ncccc2c1,"1,2",4.270426407719208,1884.1936,182.369,123.94,292.31,C10H9N,6-methylquinoline,91-62-3,305.55,Yaw
Cc1ccc2cccnc2c1,"1,2",4.0752464077192085,1801.5265,184.415,118.05,292.91,C10H9N,7-methylquinoline,612-60-2,311.15,Yaw
Cc1cccc2cccnc12,"1,2",4.071946407719208,1770.044,187.143,110.21,282.25,C10H9N,8-methylquinoline,611-32-5,246.5,Yaw
Cc1nccc2ccccc12,"1,2",4.059626407719208,1766.6301,187.12,110.27,282.9,C10H9N,1-methylisoquinoline,1721-93-3,283.15,Yaw
Cc1cc2ccccc2cn1,"1,2",4.151116407719209,1796.9857,186.842,111.07,279.9,C10H9N,3-methylisoquinoline,1125-80-0,341.15,Yaw
Cc1cncc2ccccc12,2,4.375896407719209,1886.813,184.896,116.67,278.14,C10H9N,4-methylisoquinoline,1196-39-0,318.9,Yaw
Cc1ccc2cnccc2c1,2,4.724896407719209,2024.8171,182.255,85.5,275.45,C10H9N,6-methylisoquinoline,42398-73-2,358.65,Yaw
Nc1cccc2ccccc12,"1,2",4.961536407719208,2653.5233,233.969,153.84,335.39,C10H9N,1-naphthylamine,134-32-7,322.35,Yaw
Nc1ccc2ccccc2c1,"1,2",4.897546407719209,2615.189,227.929,150.9,341.02,C10H9N,2-naphthylamine,91-59-8,386.15,Yaw
C=Cc1cccc(C=C)c1,3,5.359706407719209,2149.1093,225.079,71.74,199.76,C10H10,m-divinylbenzene,108-57-6,206.25,Yaw
CC1C=Cc2ccccc21,3,5.177266407719209,2444.0624,271.18,75.1,230.04,C10H10,1-methylindene,767-59-9,353.15,Yaw
CC1=Cc2ccccc2C1,3,4.357186407719209,1741.168,198.713,80.41,230.55,C10H10,2-methylindene,2177-47-1,353.15,Yaw
CC1=CCc2ccccc21,3,4.108466407719209,1651.2578,201.02,74.68,232.67,C10H10,3-methyl-1H-indene,767-60-2,353.15,Yaw
Cc1cccc2c1C=CC2,3,4.513166407719209,1800.1109,197.962,80.0,229.4,C10H10,4-methyl-1H-indene,7344-34-5,353.15,Yaw
Cc1ccc2c(c1)CC=C2,3,4.4359364077192085,1771.7735,198.518,80.0,229.97,C10H10,6-methyl-1H-indene,20232-11-5,353.15,Yaw
Cc1cccc2c1CC=C2,3,4.513166407719209,1800.1109,197.962,80.0,229.4,C10H10,7-methyl-1H-indene,7372-92-1,353.15,Yaw
C1=CCC([Hf+2]C2=CC=CC2)=C1.[Cl-].[Cl-],3,8.55028640771921,5241.0,273.15,229.29,362.18,C10H10Cl2Hf,bis(cyclopentadienyl)hafnium dichloride,12116-66-4,505.65,Yaw
CCOC(=O)COc1ccc(Cl)cc1Cl,3,3.636906407719208,1555.38,108.3,170.85,357.96,C10H10Cl2O3,"ethyl (2,4-dichlorophenoxy)acetate",533-23-3,315.94788338645714,ML
C1=CCC([Zr+2]C2=CC=CC2)=C1.[Cl-].[Cl-],3,8.38028640771921,5241.0,273.15,237.61,375.55,C10H10Cl2Zr,bis(cyclopentadienyl)zirconium dichloride,1291-32-3,516.65,Yaw
COC(=O)c1ccccc1C(=O)OC,3,7.0146464077192086,3154.9003,209.14,145.52,260.79,C10H10O4,dimethyl phthalate,131-11-3,274.18,Yaw
COC(=O)c1ccc(C(=O)OC)cc1,"1,2",4.545866407719209,1959.6487,147.083,157.84,314.57,C10H10O4,dimethyl terephthalate,120-61-6,278.15,Yaw
COC(=O)c1cccc(C(=O)OC)c1,"1,2",4.185576407719209,1554.9183,121.645,129.5,278.64,C10H10O4,dimethyl isophthalate,1459-93-4,340.85,Yaw
CCn1ccc2ccccc21,2,3.5194764077192087,1654.8613,185.869,105.0,328.31,C10H11N,1-ethyl-1H-indole,10604-59-8,378.15,Yaw
CCc1c[nH]c2ccccc12,2,4.225346407719209,1955.6347,178.502,141.77,319.84,C10H11N,3-ethyl-1H-indole,1484-19-1,310.15,Yaw
Cc1[nH]c2ccccc2c1C,"1,2",4.392426407719209,2028.7928,176.834,105.5,319.03,C10H11N,"2,3-dimethylindole",91-55-4,378.65,Yaw
CCc1cccc2cc[nH]c12,2,3.049406407719209,1452.9079,192.124,82.5,336.52,C10H11N,7-ethylindole,22867-74-9,355.65,Yaw
Cc1cc(C)c(C#N)c(C)c1,2,4.609636407719209,2012.4249,182.237,127.82,284.83,C10H11N,"2,4,6-trimethylbenzonitrile",2571-52-0,324.65,Yaw
Cc1ccc2c(ccn2C)c1,"1,2",4.376356407719209,1948.6347,183.214,128.21,294.94,C10H11N,"1,5-dimethyl-1H-indole",27816-53-1,355.65,Yaw
Cc1ccc2[nH]cc(C)c2c1,"1,2",4.388406407719208,2003.1136,178.905,140.61,311.17,C10H11N,"3,5-dimethyl-1H-indole",3189-12-6,355.65,Yaw
Cc1ccc2cc(C)[nH]c2c1,"1,2",4.384966407719209,1987.295,180.156,137.01,306.46,C10H11N,"2,6-dimethyl-1H-indole",5649-36-5,355.65,Yaw
CC(C)c1ccc(C#N)cc1,2,6.057776407719208,2591.6984,173.498,152.97,276.7,C10H11N,p-isopropylbenzonitrile,13816-33-6,324.65,Yaw
CCc1cccc(C)c1N=C=O,3,4.832316407719208,2009.9825,188.441,110.97,255.14,C10H11NO,2-ethyl-6-methylphenyl isocyanate,75746-71-3,287.4820855587412,ML
CC(C)c1ccc(N=C=O)cc1,3,4.832316407719208,2009.9825,188.441,110.97,255.14,C10H11NO,4-isopropylphenyl isocyanate,31027-31-3,295.18039750104424,ML
CC(C)c1ccccc1N=C=O,3,4.832316407719208,2009.9825,188.441,110.97,255.14,C10H11NO,2-isopropylphenyl isocyanate,56309-56-9,282.69998618012374,ML
CCCc1ccccc1N=C=O,3,4.832316407719208,2009.9825,188.441,110.97,255.14,C10H11NO,2-propylphenyl isocyanate,190774-57-3,274.91806322716263,ML
C1=CC2C3C=CC(C3)C2C1,3,3.865006407719209,1554.0125,222.923,33.85,213.11,C10H12,"1,3-dicyclopentadiene",77-73-6,305.15,Yaw
c1ccc2c(c1)CCCC2,"1,2",3.999266407719209,1722.0142,213.732,79.12,251.9,C10H12,"1,2,3,4-tetrahydronaphthalene",119-64-2,238.0,Yaw
CC/C=C\c1ccccc1,"1,2",4.249396407719209,1667.9831,203.522,68.57,218.93,C10H12,cis-(1-butenyl)benzene,1560-09-4,231.72,Yaw
CCC=Cc1ccccc1,"1,2",4.257396407719209,1701.1758,200.831,76.31,229.15,C10H12,trans-(1-butenyl)benzene,1005-64-7,230.15,Yaw
CC(C)=Cc1ccccc1,"1,2",4.322266407719209,1684.2816,203.825,67.7,215.02,C10H12,(2-methyl-1-propenyl)benzene,768-49-0,222.05,Yaw
C/C=C\c1ccccc1C,2,4.776526407719208,1823.2954,202.572,71.31,204.82,C10H12,cis-1-methyl-2-(1-propenyl)benzene,2077-33-0,231.72,Yaw
C/C=C\c1cccc(C)c1,2,4.776526407719208,1823.2954,202.572,71.31,204.82,C10H12,cis-1-methyl-3-(1-propenyl)benzene,2077-31-8,231.72,Yaw
C/C=C\c1ccc(C)cc1,2,4.940316407719209,1880.9017,201.576,74.17,203.85,C10H12,cis-1-methyl-4-(1-propenyl)benzene,2077-29-4,231.72,Yaw
C/C=C/c1ccc(C)cc1,2,5.184626407719209,1966.7104,200.186,78.17,202.53,C10H12,trans-1-methyl-4-(1-propenyl)benzene,2077-30-7,255.15,Yaw
C=C(C)c1ccccc1C,"1,2",4.183846407719209,1591.5041,208.193,54.23,201.69,C10H12,1-methyl-2-(1-methylethenyl)benzene,7399-49-7,213.88,Yaw
C=C(C)c1cccc(C)c1,2,4.059516407719209,1598.5692,204.634,64.47,220.69,C10H12,1-methyl-3-(1-methylethenyl)benzene,1124-20-5,213.88,Yaw
C=C(C)c1ccc(C)cc1,"1,2",4.349946407719209,1679.9769,204.356,65.27,210.56,C10H12,1-methyl-4-(1-methylethenyl)benzene,1195-32-0,205.08,Yaw
C=Cc1ccccc1CC,2,4.1383564077192085,1626.9808,203.998,66.3,219.99,C10H12,o-ethylstyrene,7564-63-8,197.65,Yaw
C=Cc1cccc(CC)c1,"1,2",4.1552264077192085,1640.2363,203.23,68.51,222.34,C10H12,m-ethylstyrene,7525-62-4,171.85,Yaw
C=Cc1ccc(CC)cc1,"1,2",4.321816407719209,1692.79,202.605,70.31,218.4,C10H12,p-ethylstyrene,3454-07-7,223.45,Yaw
C=Cc1ccc(C)cc1C,2,4.711516407719208,1832.9021,199.878,78.16,215.7,C10H12,"1-ethenyl-2,4-dimethylbenzene",2234-20-0,208.85,Yaw
C=Cc1cc(C)cc(C)c1,2,4.318586407719208,1691.6769,202.572,70.31,218.5,C10H12,"1-ethenyl-3,5-dimethylbenzene",5379-20-4,212.95,Yaw
C=Cc1c(C)cccc1C,2,4.318586407719208,1691.6769,202.572,70.31,218.5,C10H12,"2-ethenyl-1,3-dimethylbenzene",2039-90-9,234.55,Yaw
C=Cc1cc(C)ccc1C,2,4.346716407719208,1701.9582,202.402,70.89,218.28,C10H12,"2-ethenyl-1,4-dimethylbenzene",2039-89-6,239.0,Yaw