smiles,code,A [log10(atm)],B [C],C [C],TMIN [C],TMAX [C],FORMULA,NAME,CAS No,mp [K],mp_type
CCCCCC(C)C#CCO,3,5.100286407719208,2217.9263,187.219,130.0,275.0,C10H18O,4-methyl-2-nonyn-1-ol,---,275.05,Yaw
CCCCC(C)CC#CCO,3,5.100286407719208,2217.9263,187.219,130.0,275.0,C10H18O,5-methyl-2-nonyn-1-ol,---,275.05,Yaw
CCCC(C)CCC#CCO,3,5.100286407719208,2217.9263,187.219,130.0,275.0,C10H18O,6-methyl-2-nonyn-1-ol,---,275.05,Yaw
CCC(C)CCCC#CCO,3,5.100286407719208,2217.9263,187.219,130.0,275.0,C10H18O,7-methyl-2-nonyn-1-ol,---,275.05,Yaw
CC(C)CCCCC#CCO,3,5.100286407719208,2217.9263,187.219,130.0,275.0,C10H18O,8-methyl-2-nonyn-1-ol,---,275.05,Yaw
CCCCCC#CC(C)CO,3,5.100286407719208,2217.9263,187.219,130.0,275.0,C10H18O,2-methyl-3-nonyn-1-ol,---,275.05,Yaw
CCCCC(C)C#CCCO,3,5.100286407719208,2217.9263,187.219,130.0,275.0,C10H18O,5-methyl-3-nonyn-1-ol,---,275.05,Yaw
CCCC(C)CC#CCCO,3,5.100286407719208,2217.9263,187.219,130.0,275.0,C10H18O,6-methyl-3-nonyn-1-ol,---,275.05,Yaw
CCC(C)CCC#CCCO,3,5.100286407719208,2217.9263,187.219,130.0,275.0,C10H18O,7-methyl-3-nonyn-1-ol,---,275.05,Yaw
CC(C)CCCC#CCCO,3,5.100286407719208,2217.9263,187.219,130.0,275.0,C10H18O,8-methyl-3-nonyn-1-ol,---,275.05,Yaw
CCCCC#CCC(C)CO,3,5.100286407719208,2217.9263,187.219,130.0,275.0,C10H18O,2-methyl-4-nonyn-1-ol,---,275.05,Yaw
CCCCC#CC(C)CCO,3,5.100286407719208,2217.9263,187.219,130.0,275.0,C10H18O,3-methyl-4-nonyn-1-ol,---,275.05,Yaw
CCCC(C)C#CCCCO,3,5.100286407719208,2217.9263,187.219,130.0,275.0,C10H18O,6-methyl-4-nonyn-1-ol,---,275.05,Yaw
CCC(C)CC#CCCCO,3,5.100286407719208,2217.9263,187.219,130.0,275.0,C10H18O,7-methyl-4-nonyn-1-ol,---,275.05,Yaw
CC(C)CCC#CCCCO,3,5.100286407719208,2217.9263,187.219,130.0,275.0,C10H18O,8-methyl-4-nonyn-1-ol,---,275.05,Yaw
CCCC#CCCC(C)CO,3,5.100286407719208,2217.9263,187.219,130.0,275.0,C10H18O,2-methyl-5-nonyn-1-ol,---,275.05,Yaw
CCCC#CCC(C)CCO,3,5.100286407719208,2217.9263,187.219,130.0,275.0,C10H18O,3-methyl-5-nonyn-1-ol,---,275.05,Yaw
CCCC#CC(C)CCCO,3,5.100286407719208,2217.9263,187.219,130.0,275.0,C10H18O,4-methyl-5-nonyn-1-ol,---,275.05,Yaw
CCC(C)C#CCCCCO,3,5.100286407719208,2217.9263,187.219,130.0,275.0,C10H18O,7-methyl-5-nonyn-1-ol,---,275.05,Yaw
CC(C)CC#CCCCCO,3,5.100286407719208,2217.9263,187.219,130.0,275.0,C10H18O,8-methyl-5-nonyn-1-ol,---,275.05,Yaw
CCC#CCCCC(C)CO,3,5.100286407719208,2217.9263,187.219,130.0,275.0,C10H18O,2-methyl-6-nonyn-1-ol,---,275.05,Yaw
CCC#CCCC(C)CCO,3,5.100286407719208,2217.9263,187.219,130.0,275.0,C10H18O,3-methyl-6-nonyn-1-ol,---,275.05,Yaw
CCC#CCC(C)CCCO,3,5.100286407719208,2217.9263,187.219,130.0,275.0,C10H18O,4-methyl-6-nonyn-1-ol,---,275.05,Yaw
CCC#CC(C)CCCCO,3,5.100286407719208,2217.9263,187.219,130.0,275.0,C10H18O,5-methyl-6-nonyn-1-ol,---,275.05,Yaw
CC(C)C#CCCCCCO,3,5.100286407719208,2217.9263,187.219,130.0,275.0,C10H18O,8-methyl-6-nonyn-1-ol,---,275.05,Yaw
CC#CCCCCC(C)CO,3,5.100286407719208,2217.9263,187.219,130.0,275.0,C10H18O,2-methyl-7-nonyn-1-ol,---,275.05,Yaw
CC#CCCCC(C)CCO,3,5.100286407719208,2217.9263,187.219,130.0,275.0,C10H18O,3-methyl-7-nonyn-1-ol,---,275.05,Yaw
CC#CCCC(C)CCCO,3,5.100286407719208,2217.9263,187.219,130.0,275.0,C10H18O,4-methyl-7-nonyn-1-ol,---,275.05,Yaw
CC#CCC(C)CCCCO,3,5.100286407719208,2217.9263,187.219,130.0,275.0,C10H18O,5-methyl-7-nonyn-1-ol,---,275.05,Yaw
CC#CC(C)CCCCCO,3,5.100286407719208,2217.9263,187.219,130.0,275.0,C10H18O,6-methyl-7-nonyn-1-ol,---,275.05,Yaw
C#CCCCCCC(C)CO,3,5.100286407719208,2217.9263,187.219,130.0,275.0,C10H18O,2-methyl-8-nonyn-1-ol,---,275.05,Yaw
C#CCCCCC(C)CCO,3,5.100286407719208,2217.9263,187.219,130.0,275.0,C10H18O,3-methyl-8-nonyn-1-ol,---,275.05,Yaw
C#CCCCC(C)CCCO,3,5.100286407719208,2217.9263,187.219,130.0,275.0,C10H18O,4-methyl-8-nonyn-1-ol,---,275.05,Yaw
C#CCCC(C)CCCCO,3,5.100286407719208,2217.9263,187.219,130.0,275.0,C10H18O,5-methyl-8-nonyn-1-ol,---,275.05,Yaw
C#CCC(C)CCCCCO,3,5.100286407719208,2217.9263,187.219,130.0,275.0,C10H18O,6-methyl-8-nonyn-1-ol,---,275.05,Yaw
C#CC(C)CCCCCCO,3,5.100286407719208,2217.9263,187.219,130.0,275.0,C10H18O,7-methyl-8-nonyn-1-ol,---,275.05,Yaw
C#CC(O)C(CC)CCCC,3,5.100286407719208,2217.9263,187.219,130.0,275.0,C10H18O,4-ethyl-1-octyn-3-ol,5877-42-9,275.05,Yaw
CCCCCCCC=CC=O,2,4.5908964077192085,1928.3898,192.402,105.57,257.12,C10H18O,2-decenal,3913-71-1,257.15,Yaw
CCCCCCC/C=C\C=O,2,4.5908964077192085,1928.3898,192.402,105.57,257.12,C10H18O,cis-2-decenal,223-472-1,257.15,Yaw
CCCCCCC/C=C/C=O,2,4.5908964077192085,1928.3898,192.402,105.57,257.12,C10H18O,trans-2-decenal,2497-25-8,257.15,Yaw
CCCCCCC=CCC=O,2,4.5908964077192085,1928.3898,192.402,105.57,257.12,C10H18O,3-decenal,58474-80-9,257.15,Yaw
CCCCCC=CCCC=O,2,4.266166407719209,1802.6885,194.91,98.35,259.72,C10H18O,4-decenal,30390-50-2,257.15,Yaw
CCCCC=CCCCC=O,2,4.266166407719209,1802.6885,194.91,98.35,259.72,C10H18O,5-decenal,---,257.15,Yaw
CCCC=CCCCCC=O,2,4.266166407719209,1802.6885,194.91,98.35,259.72,C10H18O,6-decenal,147159-48-6,257.15,Yaw
CCC=CCCCCCC=O,2,4.266166407719209,1802.6885,194.91,98.35,259.72,C10H18O,7-decenal,---,257.15,Yaw
CC=CCCCCCCC=O,2,4.266166407719209,1802.6885,194.91,98.35,259.72,C10H18O,8-decenal,---,257.15,Yaw
C=CCCCCCCCC=O,2,4.266166407719209,1802.6885,194.91,98.35,259.72,C10H18O,9-decenal,39770-05-3,257.15,Yaw
CCCCCCC=C(C)C=O,2,3.946666407719209,1678.6317,197.684,90.37,262.76,C10H18O,2-methyl-2-nonenal,---,257.15,Yaw
CCCCCCC(C)=CC=O,2,3.946666407719209,1678.6317,197.684,90.37,262.76,C10H18O,3-methyl-2-nonenal,---,257.15,Yaw
CCCCCC(C)C=CC=O,2,3.946666407719209,1678.6317,197.684,90.37,262.76,C10H18O,4-methyl-2-nonenal,---,257.15,Yaw
CCCCC(C)CC=CC=O,2,3.946666407719209,1678.6317,197.684,90.37,262.76,C10H18O,5-methyl-2-nonenal,---,257.15,Yaw
CCCC(C)CCC=CC=O,2,3.946666407719209,1678.6317,197.684,90.37,262.76,C10H18O,6-methyl-2-nonenal,---,257.15,Yaw
CCC(C)CCCC=CC=O,2,3.946666407719209,1678.6317,197.684,90.37,262.76,C10H18O,7-methyl-2-nonenal,---,257.15,Yaw
CC(C)CCCCC=CC=O,2,3.946666407719209,1678.6317,197.684,90.37,262.76,C10H18O,8-methyl-2-nonenal,---,257.15,Yaw
CCCCCC=CC(C)C=O,2,3.946666407719209,1678.6317,197.684,90.37,262.76,C10H18O,2-methyl-3-nonenal,---,257.15,Yaw
CCCCCC=C(C)CC=O,2,3.946666407719209,1678.6317,197.684,90.37,262.76,C10H18O,3-methyl-3-nonenal,---,257.15,Yaw
CCCCCC(C)=CCC=O,2,3.946666407719209,1678.6317,197.684,90.37,262.76,C10H18O,4-methyl-3-nonenal,---,257.15,Yaw
CCCCC(C)C=CCC=O,2,3.946666407719209,1678.6317,197.684,90.37,262.76,C10H18O,5-methyl-3-nonenal,---,257.15,Yaw
CCCC(C)CC=CCC=O,2,3.946666407719209,1678.6317,197.684,90.37,262.76,C10H18O,6-methyl-3-nonenal,---,257.15,Yaw
CCC(C)CCC=CCC=O,2,3.946666407719209,1678.6317,197.684,90.37,262.76,C10H18O,7-methyl-3-nonenal,---,257.15,Yaw
CC(C)CCCC=CCC=O,2,3.946666407719209,1678.6317,197.684,90.37,262.76,C10H18O,8-methyl-3-nonenal,---,257.15,Yaw
CCCCC=CCC(C)C=O,2,3.946666407719209,1678.6317,197.684,90.37,262.76,C10H18O,2-methyl-4-nonenal,---,257.15,Yaw
CCCCC=CC(C)CC=O,2,3.946666407719209,1678.6317,197.684,90.37,262.76,C10H18O,3-methyl-4-nonenal,---,257.15,Yaw
CCCCC=C(C)CCC=O,2,3.946666407719209,1678.6317,197.684,90.37,262.76,C10H18O,4-methyl-4-nonenal,---,257.15,Yaw
CCCCC(C)=CCCC=O,2,3.946666407719209,1678.6317,197.684,90.37,262.76,C10H18O,5-methyl-4-nonenal,---,257.15,Yaw
CCCC(C)C=CCCC=O,2,3.946666407719209,1678.6317,197.684,90.37,262.76,C10H18O,6-methyl-4-nonenal,---,257.15,Yaw
CCC(C)CC=CCCC=O,2,3.946666407719209,1678.6317,197.684,90.37,262.76,C10H18O,7-methyl-4-nonenal,---,257.15,Yaw
CC(C)CCC=CCCC=O,2,3.946666407719209,1678.6317,197.684,90.37,262.76,C10H18O,8-methyl-4-nonenal,---,257.15,Yaw
CCCC=CCCC(C)C=O,2,3.946666407719209,1678.6317,197.684,90.37,262.76,C10H18O,2-methyl-5-nonenal,---,257.15,Yaw
CCCC=CCC(C)CC=O,2,3.946666407719209,1678.6317,197.684,90.37,262.76,C10H18O,3-methyl-5-nonenal,---,257.15,Yaw
CCCC=CC(C)CCC=O,2,3.946666407719209,1678.6317,197.684,90.37,262.76,C10H18O,4-methyl-5-nonenal,---,257.15,Yaw
CCCC=C(C)CCCC=O,2,3.946666407719209,1678.6317,197.684,90.37,262.76,C10H18O,5-methyl-5-nonenal,---,257.15,Yaw
CCCC(C)=CCCCC=O,2,3.946666407719209,1678.6317,197.684,90.37,262.76,C10H18O,6-methyl-5-nonenal,---,257.15,Yaw
CCC(C)C=CCCCC=O,2,3.946666407719209,1678.6317,197.684,90.37,262.76,C10H18O,7-methyl-5-nonenal,---,257.15,Yaw
CC(C)CC=CCCCC=O,2,3.946666407719209,1678.6317,197.684,90.37,262.76,C10H18O,8-methyl-5-nonenal,---,257.15,Yaw
CCC=CCCCC(C)C=O,2,3.946666407719209,1678.6317,197.684,90.37,262.76,C10H18O,2-methyl-6-nonenal,---,257.15,Yaw
CCC=CCCC(C)CC=O,2,3.946666407719209,1678.6317,197.684,90.37,262.76,C10H18O,3-methyl-6-nonenal,---,257.15,Yaw
CCC=CCC(C)CCC=O,2,3.946666407719209,1678.6317,197.684,90.37,262.76,C10H18O,4-methyl-6-nonenal,---,257.15,Yaw
CCC=CC(C)CCCC=O,2,3.946666407719209,1678.6317,197.684,90.37,262.76,C10H18O,5-methyl-6-nonenal,---,257.15,Yaw
CCC=C(C)CCCCC=O,2,3.946666407719209,1678.6317,197.684,90.37,262.76,C10H18O,6-methyl-6-nonenal,---,257.15,Yaw
CCC(C)=CCCCCC=O,2,3.946666407719209,1678.6317,197.684,90.37,262.76,C10H18O,7-methyl-6-nonenal,---,257.15,Yaw
CC(C)C=CCCCCC=O,2,3.946666407719209,1678.6317,197.684,90.37,262.76,C10H18O,8-methyl-6-nonenal,---,257.15,Yaw
CC=CCCCCC(C)C=O,2,3.946666407719209,1678.6317,197.684,90.37,262.76,C10H18O,2-methyl-7-nonenal,---,257.15,Yaw
CC=CCCCC(C)CC=O,2,3.946666407719209,1678.6317,197.684,90.37,262.76,C10H18O,3-methyl-7-nonenal,---,257.15,Yaw
CC=CCCC(C)CCC=O,2,3.946666407719209,1678.6317,197.684,90.37,262.76,C10H18O,4-methyl-7-nonenal,---,257.15,Yaw
CC=CCC(C)CCCC=O,2,3.946666407719209,1678.6317,197.684,90.37,262.76,C10H18O,5-methyl-7-nonenal,---,257.15,Yaw
CC=CC(C)CCCCC=O,2,3.946666407719209,1678.6317,197.684,90.37,262.76,C10H18O,6-methyl-7-nonenal,---,257.15,Yaw
CC=C(C)CCCCCC=O,2,3.946666407719209,1678.6317,197.684,90.37,262.76,C10H18O,7-methyl-7-nonenal,---,257.15,Yaw
CC(C)=CCCCCCC=O,2,3.946666407719209,1678.6317,197.684,90.37,262.76,C10H18O,8-methyl-7-nonenal,---,257.15,Yaw
C=CCCCCCC(C)C=O,2,3.946666407719209,1678.6317,197.684,90.37,262.76,C10H18O,2-methyl-8-nonenal,---,257.15,Yaw
C=CCCCCC(C)CC=O,2,3.946666407719209,1678.6317,197.684,90.37,262.76,C10H18O,3-methyl-8-nonenal,---,257.15,Yaw
C=CCCCC(C)CCC=O,2,3.946666407719209,1678.6317,197.684,90.37,262.76,C10H18O,4-methyl-8-nonenal,---,257.15,Yaw
C=CCCC(C)CCCC=O,2,3.946666407719209,1678.6317,197.684,90.37,262.76,C10H18O,5-methyl-8-nonenal,---,257.15,Yaw
C=CCC(C)CCCCC=O,2,3.946666407719209,1678.6317,197.684,90.37,262.76,C10H18O,6-methyl-8-nonenal,---,257.15,Yaw
C=CC(C)CCCCCC=O,2,3.946666407719209,1678.6317,197.684,90.37,262.76,C10H18O,7-methyl-8-nonenal,---,257.15,Yaw
C=C(C)CCCCCCC=O,2,3.946666407719209,1678.6317,197.684,90.37,262.76,C10H18O,8-methyl-8-nonenal,---,257.15,Yaw
CCCCCC(C)=C(C)C=O,2,3.661756407719209,1567.6278,200.464,82.37,265.99,C10H18O,"2,3-dimethyl-2-octenal",---,257.15,Yaw
CCCCC(C)C=C(C)C=O,2,3.661756407719209,1567.6278,200.464,82.37,265.99,C10H18O,"2,4-dimethyl-2-octenal",---,257.15,Yaw
CCCC(C)CC=C(C)C=O,2,3.661756407719209,1567.6278,200.464,82.37,265.99,C10H18O,"2,5-dimethyl-2-octenal",---,257.15,Yaw
CCC(C)CCC=C(C)C=O,2,3.661756407719209,1567.6278,200.464,82.37,265.99,C10H18O,"2,6-dimethyl-2-octenal",---,257.15,Yaw
CC(C=O)=CCCCC(C)C,2,3.661756407719209,1567.6278,200.464,82.37,265.99,C10H18O,"2,7-dimethyl-2-octenal",---,257.15,Yaw
CCCCC=CC(C)(C)C=O,2,3.661756407719209,1567.6278,200.464,82.37,265.99,C10H18O,"2,2-dimethyl-3-octenal",---,257.15,Yaw
CCCCC=C(C)C(C)C=O,2,3.661756407719209,1567.6278,200.464,82.37,265.99,C10H18O,"2,3-dimethyl-3-octenal",---,257.15,Yaw
CCCCC(C)=CC(C)C=O,2,3.661756407719209,1567.6278,200.464,82.37,265.99,C10H18O,"2,4-dimethyl-3-octenal",---,257.15,Yaw
CCCC(C)C=CC(C)C=O,2,3.661756407719209,1567.6278,200.464,82.37,265.99,C10H18O,"2,5-dimethyl-3-octenal",---,257.15,Yaw
CCC(C)CC=CC(C)C=O,2,3.661756407719209,1567.6278,200.464,82.37,265.99,C10H18O,"2,6-dimethyl-3-octenal",---,257.15,Yaw
CC(C=O)C=CCCC(C)C,2,3.661756407719209,1567.6278,200.464,82.37,265.99,C10H18O,"2,7-dimethyl-3-octenal",---,257.15,Yaw
CCCC=CCC(C)(C)C=O,2,3.661756407719209,1567.6278,200.464,82.37,265.99,C10H18O,"2,2-dimethyl-4-octenal",---,257.15,Yaw
CCCC=CC(C)C(C)C=O,2,3.661756407719209,1567.6278,200.464,82.37,265.99,C10H18O,"2,3-dimethyl-4-octenal",---,257.15,Yaw
CCCC=C(C)CC(C)C=O,2,3.661756407719209,1567.6278,200.464,82.37,265.99,C10H18O,"2,4-dimethyl-4-octenal",---,257.15,Yaw
CCCC(C)=CCC(C)C=O,2,3.661756407719209,1567.6278,200.464,82.37,265.99,C10H18O,"2,5-dimethyl-4-octenal",---,257.15,Yaw
CCC(C)C=CCC(C)C=O,2,3.661756407719209,1567.6278,200.464,82.37,265.99,C10H18O,"2,6-dimethyl-4-octenal",---,257.15,Yaw
CC(C)CC=CCC(C)C=O,2,3.661756407719209,1567.6278,200.464,82.37,265.99,C10H18O,"2,7-dimethyl-4-octenal",---,257.15,Yaw
CCC=CCCC(C)(C)C=O,2,3.661756407719209,1567.6278,200.464,82.37,265.99,C10H18O,"2,2-dimethyl-5-octenal",---,257.15,Yaw
CCC=CCC(C)C(C)C=O,2,3.661756407719209,1567.6278,200.464,82.37,265.99,C10H18O,"2,3-dimethyl-5-octenal",---,257.15,Yaw
CCC=CC(C)CC(C)C=O,2,3.661756407719209,1567.6278,200.464,82.37,265.99,C10H18O,"2,4-dimethyl-5-octenal",---,257.15,Yaw
CCC=C(C)CCC(C)C=O,2,3.661756407719209,1567.6278,200.464,82.37,265.99,C10H18O,"2,5-dimethyl-5-octenal",---,257.15,Yaw
CCC(C)=CCCC(C)C=O,2,3.661756407719209,1567.6278,200.464,82.37,265.99,C10H18O,"2,6-dimethyl-5-octenal",---,257.15,Yaw
CC(C)C=CCCC(C)C=O,2,3.661756407719209,1567.6278,200.464,82.37,265.99,C10H18O,"2,7-dimethyl-5-octenal",---,257.15,Yaw
CC=CCCCC(C)(C)C=O,2,3.661756407719209,1567.6278,200.464,82.37,265.99,C10H18O,"2,2-dimethyl-6-octenal",---,257.15,Yaw
CC=CCCC(C)C(C)C=O,2,3.661756407719209,1567.6278,200.464,82.37,265.99,C10H18O,"2,3-dimethyl-6-octenal",---,257.15,Yaw
CC=CCC(C)CC(C)C=O,2,3.661756407719209,1567.6278,200.464,82.37,265.99,C10H18O,"2,4-dimethyl-6-octenal",---,257.15,Yaw
CC=CC(C)CCC(C)C=O,2,3.661756407719209,1567.6278,200.464,82.37,265.99,C10H18O,"2,5-dimethyl-6-octenal",---,257.15,Yaw
CC=C(C)CCCC(C)C=O,2,3.661756407719209,1567.6278,200.464,82.37,265.99,C10H18O,"2,6-dimethyl-6-octenal",---,257.15,Yaw
CC(C)=CCCCC(C)C=O,2,3.661756407719209,1567.6278,200.464,82.37,265.99,C10H18O,"2,7-dimethyl-6-octenal",---,257.15,Yaw
C=CCCCCC(C)(C)C=O,2,3.661756407719209,1567.6278,200.464,82.37,265.99,C10H18O,"2,2-dimethyl-7-octenal",---,257.15,Yaw
C=CCCCC(C)C(C)C=O,2,3.661756407719209,1567.6278,200.464,82.37,265.99,C10H18O,"2,3-dimethyl-7-octenal",---,257.15,Yaw
C=CCCC(C)CC(C)C=O,2,3.661756407719209,1567.6278,200.464,82.37,265.99,C10H18O,"2,4-dimethyl-7-octenal",---,257.15,Yaw
C=CCC(C)CCC(C)C=O,2,3.661756407719209,1567.6278,200.464,82.37,265.99,C10H18O,"2,5-dimethyl-7-octenal",---,257.15,Yaw
C=CC(C)CCCC(C)C=O,2,3.661756407719209,1567.6278,200.464,82.37,265.99,C10H18O,"2,6-dimethyl-7-octenal",---,257.15,Yaw
C=C(C)CCCCC(C)C=O,2,3.661756407719209,1567.6278,200.464,82.37,265.99,C10H18O,"2,7-dimethyl-7-octenal",---,257.15,Yaw
CC(C)=CCCC(C)CC=O,"1,2",4.494756407719208,1826.5255,198.518,87.97,237.02,C10H18O,"3,7-dimethyl-6-octenal",106-23-0,257.15,Yaw
CCCCCCC=CC(C)=O,2,3.6701664077192087,1581.5904,198.288,86.63,271.15,C10H18O,3-decen-2-one,10519-33-2,347.65,Yaw
CCCC(C)=C(CC)C(C)=O,2,3.218536407719209,1402.9214,203.244,71.87,277.62,C10H18O,3-ethyl-4-methyl-3-hepten-2-one,54244-90-5,347.65,Yaw
CCC=C(C)C(CC)C(C)=O,2,3.6701664077192087,1581.5904,198.288,86.63,271.15,C10H18O,3-ethyl-4-methyl-4-hepten-2-one,53252-08-7,347.65,Yaw
CCC(C=C(C)C)CC(C)=O,2,3.6701664077192087,1581.5904,198.288,86.63,271.15,C10H18O,4-ethyl-6-methyl-5-hepten-2-one,104035-66-7,347.65,Yaw
CCC(=O)C(C)=C(CC)CC,2,3.6701664077192087,1581.5904,198.288,86.63,271.15,C10H18O,5-ethyl-4-methyl-4-hepten-3-one,22319-28-4,347.65,Yaw
CC=C(CC)C(C)C(=O)CC,2,3.6701664077192087,1581.5904,198.288,86.63,271.15,C10H18O,5-ethyl-4-methyl-5-hepten-3-one,74764-56-0,347.65,Yaw
CCCC(=O)C=C(C)CCC,2,3.3485264077192083,1454.9283,201.854,76.37,275.56,C10H18O,6-methyl-5-nonen-4-one,7036-98-8,347.65,Yaw
CCC=C(C)CC(=O)CCC,2,3.6701664077192087,1581.5904,198.288,86.63,271.15,C10H18O,6-methyl-6-nonen-4-one,53252-20-3,347.65,Yaw
CC(C)=CCCC(C)=CCO,2,4.816506407719209,2028.5128,193.514,109.37,255.72,C10H18O,"cis-3,7-dimethyl-2,6-octadien-1-ol",106-25-2,289.0450162128746,ML
CCCCCC=CC=CCO,2,4.187616407719209,1783.6399,198.288,95.63,260.63,C10H18O,"2,4-decadien-1-ol",14507-02-9,288.5594833743535,ML
C=CC(C)=CCCC(C)(C)O,2,4.187616407719209,1783.6399,198.288,95.63,260.63,C10H18O,"2,6-dimethyl-5,7-octadien-2-ol",5986-38-9,299.13299943799757,ML
CC12CCC(CC1)C(C)(C)O2,"1,2",4.4370864077192085,1819.8269,233.74,54.3,206.25,C10H18O,eucalyptol,470-82-6,273.95,Yaw
CC(C)(C)C1CCCCC1=O,2,4.000586407719209,1663.9734,198.288,84.63,251.49,C10H18O,2-tert-butylcyclohexanone,1728-46-7,311.7,Yaw
CC(C)(C)C1CCC(=O)CC1,2,4.000586407719209,1663.9734,198.288,84.63,251.49,C10H18O,4-tert-butylcyclohexanone,98-53-3,322.15,Yaw
CC(C)=CCC[C@H](C)CC=O,2,3.870906407719208,1649.152,198.393,88.33,263.57,C10H18O,(S)-(-)-citronellal,5949-05-3,259.44895978284825,ML
CC1=CCC(C(C)(C)O)CC1,"1,2",5.402756407719208,2554.2447,255.217,95.47,245.45,C10H18O,a-terpineol,98-55-5,313.65,Yaw
CC1(C)CCCC(C)(C)C1=O,2,4.000586407719209,1663.9734,198.288,84.63,251.49,C10H18O,"2,2,6,6-tetramethylcyclohexanone",1195-93-3,300.33,Yaw
CC1(C)CC(=O)CC(C)(C)C1,2,3.792436407719209,1584.0709,200.047,79.17,253.66,C10H18O,"3,3,5,5-tetramethylcyclohexanone",14376-79-5,300.33,Yaw
CCC(C)C1CCCCC1=O,2,4.000586407719209,1663.9734,198.288,84.63,251.49,C10H18O,2-(1-methylpropyl)cyclohexanone,14765-30-1,300.33,Yaw
CCCCCCCC=CC(=O)O,2,3.999966407719208,1892.2253,182.394,139.37,329.16,C10H18O2,2-decenoic acid,3913-85-7,285.15,Yaw
CCCCCCC=CCC(=O)O,2,3.999966407719208,1892.2253,182.394,139.37,329.16,C10H18O2,3-decenoic acid,15469-77-9,291.15,Yaw
CCCCCC=CCCC(=O)O,2,3.999966407719208,1892.2253,182.394,139.37,329.16,C10H18O2,4-decenoic acid,26303-90-2,291.98,Yaw
CCCCC=CCCCC(=O)O,2,3.999966407719208,1892.2253,182.394,139.37,329.16,C10H18O2,5-decenoic acid,---,291.98,Yaw
CCCC=CCCCCC(=O)O,2,3.999966407719208,1892.2253,182.394,139.37,329.16,C10H18O2,6-decenoic acid,---,291.98,Yaw
CCC=CCCCCCC(=O)O,2,3.999966407719208,1892.2253,182.394,139.37,329.16,C10H18O2,7-decenoic acid,---,291.98,Yaw
CC=CCCCCCCC(=O)O,2,3.999966407719208,1892.2253,182.394,139.37,329.16,C10H18O2,8-decenoic acid,---,291.98,Yaw
C=CCCCCCCCC(=O)O,2,3.999966407719208,1892.2253,182.394,139.37,329.16,C10H18O2,9-decenoic acid,14436-32-9,299.65,Yaw
CCCCCCC=C(C)C(=O)O,2,3.787826407719209,1800.293,184.618,132.97,331.7,C10H18O2,2-methyl-2-nonenoic acid,---,291.98,Yaw
CCCCCCC(C)=CC(=O)O,2,3.787826407719209,1800.293,184.618,132.97,331.7,C10H18O2,3-methyl-2-nonenoic acid,---,291.98,Yaw
CCCCCC(C)C=CC(=O)O,2,3.787826407719209,1800.293,184.618,132.97,331.7,C10H18O2,4-methyl-2-nonenoic acid,---,291.98,Yaw
CCCCC(C)CC=CC(=O)O,2,3.787826407719209,1800.293,184.618,132.97,331.7,C10H18O2,5-methyl-2-nonenoic acid,---,291.98,Yaw
CCCC(C)CCC=CC(=O)O,2,3.787826407719209,1800.293,184.618,132.97,331.7,C10H18O2,6-methyl-2-nonenoic acid,---,291.98,Yaw
CCC(C)CCCC=CC(=O)O,2,3.787826407719209,1800.293,184.618,132.97,331.7,C10H18O2,7-methyl-2-nonenoic acid,---,291.98,Yaw
CC(C)CCCCC=CC(=O)O,2,3.787826407719209,1800.293,184.618,132.97,331.7,C10H18O2,8-methyl-2-nonenoic acid,---,291.98,Yaw
CCCCCC=CC(C)C(=O)O,2,3.787826407719209,1800.293,184.618,132.97,331.7,C10H18O2,2-methyl-3-nonenoic acid,---,291.98,Yaw
CCCCCC=C(C)CC(=O)O,2,3.787826407719209,1800.293,184.618,132.97,331.7,C10H18O2,3-methyl-3-nonenoic acid,---,291.98,Yaw
CCCCCC(C)=CCC(=O)O,2,3.787826407719209,1800.293,184.618,132.97,331.7,C10H18O2,4-methyl-3-nonenoic acid,---,291.98,Yaw
CCCCC(C)C=CCC(=O)O,2,3.787826407719209,1800.293,184.618,132.97,331.7,C10H18O2,5-methyl-3-nonenoic acid,---,291.98,Yaw
CCCC(C)CC=CCC(=O)O,2,3.787826407719209,1800.293,184.618,132.97,331.7,C10H18O2,6-methyl-3-nonenoic acid,---,291.98,Yaw
CCC(C)CCC=CCC(=O)O,2,3.787826407719209,1800.293,184.618,132.97,331.7,C10H18O2,7-methyl-3-nonenoic acid,---,291.98,Yaw
CC(C)CCCC=CCC(=O)O,2,3.787826407719209,1800.293,184.618,132.97,331.7,C10H18O2,8-methyl-3-nonenoic acid,---,291.98,Yaw
CCCCC=CCC(C)C(=O)O,2,3.787826407719209,1800.293,184.618,132.97,331.7,C10H18O2,2-methyl-4-nonenoic acid,---,291.98,Yaw