smiles,code,A [log10(atm)],B [C],C [C],TMIN [C],TMAX [C],FORMULA,NAME,CAS No,mp [K],mp_type
FC(F)(F)C(F)(F)C(F)(F)C(F)(F)C(F)(F)C(F)(F)C(F)(F)C(F)(F)C(F)(F)F,"1,2",4.647726407719208,1611.5115,221.231,25.61,149.51,C9F20,perfluorononane,375-96-2,257.15,Yaw
Oc1c(Br)cc(Br)c2cccnc12,3,7.709286407719208,4910.0,273.15,238.84,389.62,C9H5Br2NO,"5,7-dibromo-8-quinolinol",521-74-4,469.15,Yaw
Oc1c(Cl)cc(I)c2cccnc12,3,12.669286407719207,6850.0,273.15,197.64,280.69,C9H5ClINO,7-chloro-5-iodo-8-quinolinol,35048-13-6,448.48088034268676,ML
Oc1c(Cl)cc(Cl)c2cccnc12,3,8.399286407719208,4860.0,273.15,199.61,326.98,C9H5Cl2NO,"5,7-dichloro-8-quinolinol",773-76-2,452.65,Yaw
CCC(Cl)(Cl)C(F)(F)C(F)(F)C(F)(F)C(F)(F)C(F)(F)C(F)(F)Cl,3,3.434986407719209,1730.7,273.15,52.43,279.09,C9H5Cl3F12,"1,7,7-trichloro-1,1,2,2,3,3,4,4,5,5,6,6-dodecafluorononane",16327-68-7,304.43861829850164,ML
Oc1c(I)cc(I)c2cccnc12,3,8.98928640771921,5790.0,273.15,259.5,393.27,C9H5I2NO,"5,7-diiodo-8-quinolinol",83-73-8,483.15,Yaw
Oc1ccc(I)c2cccnc12,3,12.089286407719207,6200.0,273.15,170.66,252.8,C9H6INO,5-iodo-8-quinolinol,13207-63-1,437.3470174669692,ML
Cc1ccc(N=C=O)cc1N=C=O,"1,2",4.977356407719209,2376.3853,225.772,120.73,282.4,C9H6N2O2,toluene diisocyanate,584-84-9,287.04,Yaw
COC(=O)COc1cc(Cl)c(Cl)cc1Cl,3,3.2619664077192088,1336.65,79.15,170.85,372.28,C9H7Cl3O3,"2,4,5-T methyl ester",1928-37-6,363.23,Yaw
Cc1cccc(OC(=O)C(F)(F)F)c1,3,5.002186407719209,2017.3,236.3,56.78,192.81,C9H7F3O2,"trifluoroacetic acid, 3-methylphenyl ester",1736-09-0,272.5768897508799,ML
Cc1ccc(OC(=O)C(F)(F)F)cc1,3,4.802986407719208,1890.0,224.0,58.77,195.82,C9H7F3O2,"trifluoroacetic acid, 4-methylphenyl ester",1813-29-2,285.9988837175037,ML
c1ccc2cnccc2c1,"1,2",4.399836407719208,1950.1651,201.386,109.12,274.4,C9H7N,isoquinoline,119-65-3,299.62,Yaw
c1ccc2ncccc2c1,"1,2",4.333266407719209,1902.9767,201.305,104.93,270.64,C9H7N,quinoline,91-22-5,257.93,Yaw
Oc1cccc2cccnc12,"1,2",4.5880564077192085,2086.4504,186.907,135.63,299.78,C9H7NO,8-hydroxyquinoline,148-24-3,346.0,Yaw
C1=Cc2ccccc2C1,"1,2",5.284886407719208,2383.6436,270.18,62.47,208.09,C9H8,indene,95-13-6,271.4,Yaw
COC(=O)COc1ccc(Cl)cc1Cl,3,4.198756407719209,2294.3757,210.66,129.85,377.99,C9H8Cl2O3,"methyl (2,4-dichlorophenoxy)acetate",1928-38-7,392.15,Yaw
Cc1cc2ccccc2o1,"1,2",4.345336407719208,1766.4974,209.527,74.2,227.26,C9H8O,2-methylbenzofuran,4265-25-2,292.84125514853514,ML
C=C(C)c1ccc(Cl)cc1,2,3.717126407719209,1541.9218,199.074,76.37,252.29,C9H9Cl,4-chloro-a-methylstyrene,1712-70-5,267.7096141662778,ML
C=Cc1ccc(CCl)cc1,2,4.507106407719209,1839.5433,192.402,95.57,244.95,C9H9Cl,4-vinylbenzyl chloride,1592-20-7,276.5935923192227,ML
C=CC(Cl)c1ccccc1,2,4.507106407719209,1839.5433,192.402,95.57,244.95,C9H9Cl,vinylbenzyl chloride,30030-25-2,263.0241210418397,ML
COC(=O)C(NC(=O)C(F)(F)F)C(C)OC(=O)C(F)(F)F,3,7.959286407719208,3785.0,273.15,111.5,221.09,C9H9F6NO5,"N,O-bis(trifluoroacetyl)-L-threonine methyl ester",1548-45-4,330.04465937712524,ML
Cn1ccc2ccccc21,2,3.636086407719208,1645.9591,190.178,108.17,303.35,C9H9N,1-methyl-1H-indole,603-76-9,334.35,Yaw
Cc1cc2ccccc2[nH]1,"1,2",4.382546407719208,1983.0935,180.448,136.17,305.42,C9H9N,2-methyl-1H-indole,95-20-5,334.15,Yaw
Cc1c[nH]c2ccccc12,"1,2",4.394166407719209,1967.1204,182.116,97.5,298.47,C9H9N,3-methyl-1H-indole,83-34-1,370.65,Yaw
Cc1cccc2[nH]ccc12,"1,2",4.378636407719209,1965.5207,181.838,132.17,300.19,C9H9N,4-methyl-1H-indole,16096-32-5,275.65,Yaw
Cc1ccc2[nH]ccc2c1,"1,2",4.378636407719209,1965.5207,181.838,132.17,300.19,C9H9N,5-methyl-1H-indole,614-96-0,333.15,Yaw
Cc1cccc2cc[nH]c12,"1,2",4.377856407719209,1962.0064,182.116,131.37,299.14,C9H9N,7-methyl-1H-indole,933-67-5,358.15,Yaw
Cc1cccc(C#N)c1C,2,4.984666407719208,2084.4218,185.672,117.94,259.37,C9H9N,"2,3-dimethylbenzonitrile",5724-56-1,289.65,Yaw
Cc1cccc(C)c1C#N,2,4.984666407719208,2084.4218,185.672,117.94,259.37,C9H9N,"2,6-dimethylbenzonitrile",6575-13-9,360.15,Yaw
CCc1ccc(C#N)cc1,2,4.353036407719209,1839.9116,190.178,104.97,263.9,C9H9N,4-ethylbenzonitrile,25309-65-3,324.9,Yaw
CCc1ccccc1C#N,2,4.984666407719208,2084.4218,185.672,117.94,259.37,C9H9N,2-ethylbenzonitrile,34136-59-9,324.9,Yaw
Cc1ccc2cc[nH]c2c1,2,4.073776407719208,1825.731,185.672,120.94,298.25,C9H9N,6-methylindole,3420-02-8,334.35,Yaw
Cc1cccc(N=C=O)c1C,3,4.568056407719209,1841.4234,195.827,89.72,235.72,C9H9NO,"2,3-dimethylphenyl isocyanate",1591-99-7,288.1924400418691,ML
Cc1ccc(C)c(N=C=O)c1,3,4.316016407719209,1747.8423,197.684,84.37,237.65,C9H9NO,"2,5-dimethylphenyl isocyanate",40397-98-6,283.4583963701498,ML
Cc1ccc(N=C=O)cc1C,3,4.568056407719209,1841.4234,195.827,89.72,235.72,C9H9NO,"3,4-dimethylphenyl isocyanate",51163-27-0,287.2413947721033,ML
Cc1ccc(N=C=O)c(C)c1,3,4.568056407719209,1841.4234,195.827,89.72,235.72,C9H9NO,"2,4-dimethylphenyl isocyanate",51163-29-2,289.59510739139824,ML
Cc1cc(C)cc(N=C=O)c1,3,4.568056407719209,1841.4234,195.827,89.72,235.72,C9H9NO,"3,5-dimethylphenyl isocyanate",54132-75-1,274.56212184770806,ML
CCc1ccc(N=C=O)cc1,3,4.568056407719209,1841.4234,195.827,89.72,235.72,C9H9NO,4-ethylphenyl isocyanate,23138-50-3,285.7411794935236,ML
CCc1cccc(N=C=O)c1,3,4.568056407719209,1841.4234,195.827,89.72,235.72,C9H9NO,3-ethylphenyl isocyanate,23138-58-1,271.2204150274713,ML
CCc1ccccc1N=C=O,3,4.568056407719209,1841.4234,195.827,89.72,235.72,C9H9NO,2-ethylphenyl isocyanate,40411-25-4,271.41883176584014,ML
Cc1ccc(CN=C=O)cc1,3,4.568056407719209,1841.4234,195.827,89.72,235.72,C9H9NO,4-methylbenzyl isocyanate,56651-57-1,295.3587564993548,ML
Cc1ccccc1CN=C=O,3,4.960386407719208,1986.7286,193.236,97.17,233.16,C9H9NO,2-methylbenzyl isocyanate,56651-58-2,290.6050803791524,ML
Cc1cccc(CN=C=O)c1,3,4.568056407719209,1841.4234,195.827,89.72,235.72,C9H9NO,3-methylbenzyl isocyanate,61924-25-2,286.78450765599723,ML
O=C=NCCc1ccccc1,3,4.316016407719209,1747.8423,197.684,84.37,237.65,C9H9NO,phenethyl isocyanate,1943-82-4,282.7182250019956,ML
c1ccc2c(c1)CCC2,3,5.276926407719209,1992.0536,221.757,56.55,178.58,C9H10,indane,496-11-7,221.74,Yaw
C/C=C\c1ccccc1,"1,2",4.775566407719209,1876.7783,225.566,56.39,193.87,C9H10,cis-1-propenylbenzene,766-90-5,211.47,Yaw
CC=Cc1ccccc1,"1,2",4.4096364077192085,1782.5111,227.381,55.99,206.47,C9H10,trans-1-propenylbenzene,873-66-5,243.82,Yaw
C=CCc1ccccc1,"1,2",4.209066407719209,1551.4683,212.752,42.01,184.24,C9H10,2-propenylbenzene,300-57-2,233.15,Yaw
C=C(C)c1ccccc1,"1,2",4.271646407719208,1647.2836,220.782,46.96,194.09,C9H10,alpha-methylstyrene,98-83-9,249.05,Yaw
C=Cc1cccc(C)c1,"1,2",4.396446407719209,1752.8349,228.144,51.09,199.86,C9H10,m-methylstyrene,100-80-1,186.81,Yaw
C=Cc1ccccc1C,"1,2",4.682196407719209,1772.9194,218.652,51.49,186.02,C9H10,o-methylstyrene,611-15-4,204.76,Yaw
C=Cc1ccc(C)cc1,"1,2",4.206716407719209,1629.6844,214.55,53.16,202.71,C9H10,p-methylstyrene,622-97-9,239.3,Yaw
Cc1cc(C)c(Br)c(C)c1Br,"1,2",4.295226407719209,1955.9779,176.834,139.87,312.87,C9H10Br2,"2,4-dibromo-1,3,5-trimethylbenzene",6942-99-0,338.65,Yaw
Cc1cc(C)c(Cl)c(C)c1Cl,2,3.891876407719209,1708.9554,188.371,107.67,287.55,C9H10Cl2,"2,4-dichloro-1,3,5-trimethylbenzene",57386-83-1,332.15,Yaw
Cc1ccc(C=O)c(C)c1,"1,2",5.323196407719209,2427.4598,238.015,98.94,245.33,C9H10O,"2,4-dimethylbenzaldehyde",15764-16-6,264.15,Yaw
CCC(=O)c1ccccc1,"1,2",4.279206407719209,1767.7354,195.599,91.37,248.76,C9H10O,1-phenyl-1-propanone,93-55-0,291.75,Yaw
Cc1ccc(C(=O)O)c(C)c1,"1,2",5.091756407719209,2289.3057,181.56,146.77,296.3,C9H10O2,"2,4-dimethylbenzoic acid",611-01-8,363.15,Yaw
Cc1ccc(C)c(C(=O)O)c1,"1,2",4.4833964077192086,2035.9119,186.05,133.85,300.73,C9H10O2,"2,5-dimethylbenzoic acid",610-72-0,405.15,Yaw
Cc1cccc(C)c1C(=O)O,2,5.219056407719208,2355.1923,179.753,116.0,299.14,C9H10O2,"2,6-dimethylbenzoic acid",632-46-2,389.15,Yaw
CCc1ccccc1C(=O)O,"1,2",5.094506407719209,2257.4399,184.062,139.57,286.88,C9H10O2,2-ethylbenzoic acid,612-19-1,341.15,Yaw
CCc1cccc(C(=O)O)c1,2,4.370566407719209,1999.8171,186.05,133.85,305.36,C9H10O2,3-ethylbenzoic acid,619-20-5,320.15,Yaw
CCOC(=O)c1ccccc1,"1,2",4.627736407719208,2047.0347,228.94,85.57,244.18,C9H10O2,ethyl benzoate,93-89-0,238.45,Yaw
CC(=O)OCc1ccccc1,"1,2",4.492316407719208,1914.8871,212.258,88.2,244.62,C9H10O2,benzyl acetate,140-11-4,221.65,Yaw
Cc1cccc(C(=O)O)c1C,2,4.306376407719209,1970.4455,186.05,132.42,305.9,C9H10O2,"2,3-dimethylbenzoic acid",603-79-2,418.15,Yaw
CCc1ccc(C(=O)O)cc1,2,4.370566407719209,1999.8171,186.05,133.85,305.36,C9H10O2,4-ethylbenzoic acid,619-64-7,385.15,Yaw
CCOc1cc(C=O)ccc1O,3,10.586456407719208,4189.0837,161.324,174.68,245.96,C9H10O3,ethyl vanillin,121-32-4,350.65,Yaw
CC(C)c1ccc(Br)cc1,"1,2",4.135926407719209,1712.338,195.266,89.33,251.25,C9H11Br,1-bromo-4-isopropylbenzene,586-61-8,250.65,Yaw
Cc1cc(C)cc(CBr)c1,2,4.288746407719208,1792.2223,192.124,98.37,257.31,C9H11Br,"1-(bromomethyl)-3,5-dimethylbenzene",27129-86-8,313.15,Yaw
CC(CBr)c1ccccc1,2,3.1484264077192083,1352.0163,203.661,65.17,271.16,C9H11Br,(2-bromo-1-methylethyl)benzene,1459-00-3,213.85,Yaw
CC(Br)Cc1ccccc1,2,3.9568564077192088,1664.7427,194.959,90.21,260.41,C9H11Br,(2-bromopropyl)benzene,2114-39-8,263.15,Yaw
BrCCCc1ccccc1,"1,2",4.127326407719209,1712.3992,195.043,89.97,252.49,C9H11Br,(3-bromopropyl)benzene,637-59-2,263.15,Yaw
Cc1cc(C)c(C)c(Br)c1,2,4.580516407719209,1903.9611,189.9,104.77,255.0,C9H11Br,"1-bromo-2,3,5-trimethylbenzene",31053-99-3,263.15,Yaw
Cc1cc(C)c(Br)cc1C,"1,2",4.153776407719208,1765.6153,191.012,73.0,267.26,C9H11Br,"1-bromo-2,4,5-trimethylbenzene",5469-19-2,346.15,Yaw
Cc1cc(C)c(Br)c(C)c1,"1,2",4.143376407719209,1734.2703,193.514,94.37,257.84,C9H11Br,"2-bromo-1,3,5-trimethylbenzene",576-83-0,272.15,Yaw
CC(C)c1ccccc1Br,"1,2",4.126726407719208,1683.3787,197.601,82.61,242.42,C9H11Br,1-bromo-2-(1-methylethyl)benzene,7073-94-1,214.35,Yaw
CCCc1ccc(Br)cc1,"1,2",4.143376407719209,1734.2703,193.514,94.37,257.84,C9H11Br,1-bromo-4-propylbenzene,588-93-2,231.75,Yaw
CC(C)c1cccc(Br)c1,"1,2",4.125846407719209,1679.2109,197.948,81.61,241.08,C9H11Br,1-bromo-3-(1-methylethyl)benzene,5433-01-2,263.15,Yaw
CC(C)c1ccccc1Cl,"1,2",4.150166407719208,1635.5315,202.939,68.25,221.97,C9H11Cl,1-chloro-2-isopropylbenzene,2077-13-6,198.75,Yaw
CC(C)c1ccc(Cl)cc1,"1,2",4.158946407719209,1660.6143,200.937,74.01,229.51,C9H11Cl,1-chloro-4-isopropylbenzene,2621-46-7,260.85,Yaw
Cc1ccc(CCl)c(C)c1,2,4.220226407719209,1732.2397,196.155,87.77,245.83,C9H11Cl,"1-(chloromethyl)-2,4-dimethylbenzene",824-55-5,229.8,Yaw
CC(C)(Cl)c1ccccc1,2,3.999376407719208,1649.0218,198.013,82.42,247.87,C9H11Cl,(1-chloro-1-methylethyl)benzene,934-53-2,229.8,Yaw
CC(CCl)c1ccccc1,2,3.999376407719208,1649.0218,198.013,82.42,247.87,C9H11Cl,(2-chloro-1-methylethyl)benzene,824-47-5,229.8,Yaw
CCc1ccc(CCl)cc1,2,3.999376407719208,1649.0218,198.013,82.42,247.87,C9H11Cl,1-(chloromethyl)-4-ethylbenzene,1467-05-6,229.8,Yaw
ClCCCc1ccccc1,"1,2",4.183676407719209,1734.5261,195.043,90.97,251.69,C9H11Cl,(3-chloropropyl)benzene,104-52-9,229.8,Yaw
Cc1cc(C)c(Cl)c(C)c1,"1,2",4.166946407719209,1683.9643,199.074,79.37,236.52,C9H11Cl,"2-chloro-1,3,5-trimethylbenzene",1667-04-5,229.8,Yaw
Cc1ccc(CCl)cc1C,2,3.999376407719208,1649.0218,198.013,82.42,247.87,C9H11Cl,"3,4-dimethylbenzyl chloride",102-46-5,229.8,Yaw
Cc1ccc(C)c(CCl)c1,"1,2",4.1881664077192085,1748.4807,193.931,94.17,255.88,C9H11Cl,"2,5-dimethylbenzyl chloride",824-45-3,229.8,Yaw
CN(C)C(=O)Nc1ccc(Cl)cc1,3,10.424386407719208,5988.39,273.15,213.51,318.39,C9H11ClN2O,"N'-(4-chlorophenyl)-N,N-dimethylurea",150-68-5,443.65,Yaw
ClCCSCc1ccccc1,3,4.495846407719209,2733.4,273.15,155.51,378.46,C9H11ClS,(2-chloroethyl) benzyl sulfide,4332-51-8,289.37131444784626,ML
Cc1cc(C)c(F)c(C)c1,"1,2",4.334106407719209,1646.6878,208.387,56.57,199.91,C9H11F,"2-fluoro-1,3,5-trimethylbenzene",392-69-8,236.45,Yaw
O=C(OC1CCCCC1)C(F)(F)C(F)(F)F,3,4.844646407719209,1844.72,224.891,49.4,181.11,C9H11F5O2,"pentafluoropropanoic acid, cyclohexyl ester",24262-73-5,268.22333382683763,ML
CCc1cccc(C)c1I,2,3.988826407719209,1744.9842,187.44,109.85,285.74,C9H11I,2-ethyl-6-methyliodobenzene,175277-95-9,301.15,Yaw
Cc1cc(C)c(I)c(C)c1,2,3.988826407719209,1744.9842,187.44,109.85,285.74,C9H11I,"2,4,6-trimethyliodobenzene",4028-63-1,301.15,Yaw
CN(C)c1ccc(C=O)cc1,3,6.844156407719209,3533.64,246.031,158.97,294.02,C9H11NO,p-dimethylaminobenzaldehyde,100-10-7,348.0,Yaw
CC(C)c1ccccc1[N+](=O)[O-],2,4.227056407719209,1895.1688,185.313,124.97,297.41,C9H11NO2,1-isopropyl-2-nitrobenzene,6526-72-3,263.65,Yaw
CC(C)c1ccc([N+](=O)[O-])cc1,2,4.227056407719209,1895.1688,185.313,124.97,297.41,C9H11NO2,1-isopropyl-4-nitrobenzene,1817-47-6,308.32,Yaw
CC(C)(c1ccccc1)[N+](=O)[O-],2,4.227056407719209,1895.1688,185.313,124.97,297.41,C9H11NO2,(1-methyl-1-nitroethyl)benzene,3457-58-7,308.32,Yaw
Cc1cc(C)c([N+](=O)[O-])cc1C,2,4.580406407719209,2040.2232,182.394,133.37,294.36,C9H11NO2,"1,2,4-trimethyl-5-nitrobenzene",610-91-3,344.15,Yaw
Cc1cc(C)c([N+](=O)[O-])c(C)c1,"1,2",4.503976407719208,1982.7608,185.174,125.37,286.58,C9H11NO2,"1,3,5-trimethyl-2-nitrobenzene",603-71-4,317.15,Yaw
CC(C)c1ccccc1,"1,2",4.226096407719209,1577.9699,220.977,37.41,181.05,C9H12,cumene,98-82-8,177.14,Yaw
CCc1cccc(C)c1,"1,2",4.191206407719209,1610.6921,222.972,42.29,191.07,C9H12,m-ethyltoluene,620-14-4,177.61,Yaw
CCc1ccccc1C,"1,2",4.167336407719208,1615.2019,222.406,44.65,195.36,C9H12,o-ethyltoluene,611-14-3,192.35,Yaw
CCc1ccc(C)cc1,"1,2",4.167396407719209,1580.26,217.186,44.09,191.53,C9H12,p-ethyltoluene,622-96-8,210.83,Yaw
Cc1cccc(C)c1C,"1,2",4.417216407719208,1789.6521,229.034,55.13,205.75,C9H12,"1,2,3-trimethylbenzene",526-73-8,247.79,Yaw
Cc1ccc(C)c(C)c1,"1,2",4.4124764077192085,1763.3511,230.248,49.95,198.64,C9H12,"1,2,4-trimethylbenzene",95-63-6,229.33,Yaw
Cc1cc(C)cc(C)c1,"1,2",4.380236407719209,1695.8268,222.415,48.44,193.31,C9H12,mesitylene,108-67-8,228.42,Yaw
CCCc1ccccc1,"1,2",4.300856407719209,1655.2071,225.615,42.15,188.2,C9H12,propylbenzene,103-65-1,173.55,Yaw
CC=C1CC2C=CC1C2,3,6.523146407719208,3957.899,447.523,23.43,188.58,C9H12,ethylidene norbornene,16219-75-3,193.0,Yaw
C#CCC#CCCCC,2,4.641436407719208,1784.2558,210.194,63.37,200.89,C9H12,"1,4-nonadiyne",6088-94-4,261.65,Yaw
C#CCCCCCC#C,"1,2",5.061116407719209,1888.1944,211.028,60.97,185.64,C9H12,"1,8-nonadiyne",2396-65-8,245.85,Yaw
CC#CCCCC#CC,"1,2",5.058306407719209,1952.6278,206.024,75.37,204.43,C9H12,"2,7-nonadiyne",31699-35-1,277.45,Yaw
C=CC1CC2C=CC1C2,3,3.0600964077192083,1090.9175,197.273,23.52,198.12,C9H12,"5-vinyl-2-norbornene, endo and exo",3048-64-4,193.15,Yaw
C1=C\C=C/CCC\C=C/1,3,3.903116407719208,1486.3056,211.575,45.4,201.05,C9H12,"cis,cis,cis-cyclononatriene",696-86-6,246.7213391469207,ML
C1=CCC2CC=CC2C1,3,4.890716407719209,2045.5714,259.032,43.05,186.66,C9H12,"3a,4,7,7a-tetrahydro-1H-indene",3048-65-5,238.96195865365337,ML
CC=C1C[C@H]2C=C[C@@H]1C2,3,3.509686407719209,1294.311,209.558,30.55,193.82,C9H12,cis-5-ethylidenebicyclo[2.2.1]hept-2-ene,28304-66-7,219.81110537785574,ML
C1=CC[C@@H]2CC=C[C@@H]2C1,3,4.0774064077192085,1486.7462,205.406,44.12,188.29,C9H12,"cis-bicyclo[4.3.0]nona-3,7-diene",38451-18-2,205.51610432151782,ML
COC(=O)CNC(=O)CNC(=O)CNC(=O)C(F)(F)F,3,12.869286407719208,6969.0,273.15,199.32,281.34,C9H12F3N3O5,N-[N-(N-(trifluoro-acetyl)glycyl)glycyl]-glycine methyl ester,651-18-3,425.8483963941658,ML
CCOCc1ccccc1,"1,2",4.538626407719208,1887.7949,230.94,63.13,214.55,C9H12O,benzyl ethyl ether,539-30-0,275.65,Yaw
CC(C)Oc1ccccc1,"1,2",3.634276407719209,1234.4933,162.881,60.96,207.48,C9H12O,phenyl isopropyl ether,2741-16-4,240.15,Yaw
CCCOc1ccccc1,"1,2",4.947336407719209,2210.7246,256.951,66.81,218.85,C9H12O,phenyl propyl ether,622-85-5,246.15,Yaw
CC(C)(O)c1ccccc1,"1,2",5.157576407719208,2245.5645,233.391,85.65,228.99,C9H12O,2-phenyl-2-propanol,617-94-7,309.15,Yaw
CCCc1ccccc1O,"1,2",4.601916407719209,1918.6355,195.071,100.89,251.03,C9H12O,2-propylphenol,644-35-9,280.15,Yaw
CCCc1cccc(O)c1,"1,2",4.739786407719208,1992.6175,192.402,108.57,256.51,C9H12O,3-propylphenol,621-27-2,299.15,Yaw
CCCc1ccc(O)cc1,"1,2",4.7668064077192085,2016.3633,191.151,112.17,260.36,C9H12O,4-propylphenol,645-56-7,295.15,Yaw
CC(C)c1ccccc1O,"1,2",4.695286407719209,1929.4492,196.433,96.97,242.65,C9H12O,2-isopropylphenol,88-69-7,288.65,Yaw
CC(C)c1cccc(O)c1,"1,2",4.700086407719208,1977.2324,192.68,107.77,256.79,C9H12O,3-isopropylphenol,618-45-1,299.15,Yaw
CC(C)c1ccc(O)cc1,"1,2",4.700496407719209,1981.48,192.347,108.73,258.04,C9H12O,4-isopropylphenol,99-89-8,335.15,Yaw
CCc1cccc(O)c1C,"1,2",4.699736407719208,1973.6928,192.958,71.0,255.74,C9H12O,2-methyl-3-ethylphenol,1123-73-5,344.15,Yaw
CCc1ccc(O)c(C)c1,"1,2",4.699946407719208,1975.8166,192.792,107.45,256.37,C9H12O,2-methyl-4-ethylphenol,2219-73-0,321.41,Yaw
CCc1ccc(C)c(O)c1,"1,2",4.699976407719209,1976.1705,192.764,107.53,256.47,C9H12O,2-methyl-5-ethylphenol,1687-65-6,288.15,Yaw
CCc1cccc(C)c1O,"1,2",4.695106407719209,1927.6795,196.572,96.57,242.13,C9H12O,2-methyl-6-ethylphenol,1687-64-5,321.41,Yaw
CCc1ccc(O)cc1C,"1,2",4.700776407719209,1984.3117,192.124,109.37,258.88,C9H12O,3-methyl-4-ethylphenol,1123-94-0,299.15,Yaw
CCc1cc(C)cc(O)c1,"1,2",4.702826407719209,2005.5498,190.456,114.17,265.16,C9H12O,3-methyl-5-ethylphenol,698-71-5,328.15,Yaw
CCc1ccc(C)cc1O,"1,2",4.698756407719209,1963.782,193.737,104.73,252.81,C9H12O,3-methyl-6-ethylphenol,1687-61-2,315.85,Yaw
CCc1cc(C)ccc1O,"1,2",4.698116407719208,1957.4109,194.237,103.29,250.92,C9H12O,4-methyl-2-ethylphenol,3855-26-3,298.85,Yaw
CCc1cc(O)ccc1C,"1,2",4.702826407719209,2005.5498,190.456,114.17,265.16,C9H12O,4-methyl-3-ethylphenol,6161-67-7,306.15,Yaw
Cc1ccc(O)c(C)c1C,"1,2",4.703166407719209,2009.0895,190.178,81.0,266.21,C9H12O,"2,3,4-trimethylphenol",526-85-2,354.15,Yaw
Cc1cc(C)c(C)c(O)c1,"1,2",4.702626407719209,2003.4259,190.623,95.0,264.54,C9H12O,"2,3,5-trimethylphenol",697-82-5,368.15,Yaw
Cc1ccc(C)c(O)c1C,2,5.275446407719208,2183.1597,190.22,114.85,248.66,C9H12O,"2,3,6-trimethylphenol",2416-94-6,335.15,Yaw
Cc1cc(C)c(O)cc1C,"1,2",4.702626407719209,2003.4259,190.623,113.69,264.54,C9H12O,"2,4,5-trimethylphenol",496-78-6,345.15,Yaw
Cc1cc(C)c(O)c(C)c1,"1,2",4.697556407719208,1951.7477,194.682,72.0,249.25,C9H12O,"2,4,6-trimethylphenol",527-60-6,345.15,Yaw
Cc1cc(O)cc(C)c1C,"1,2",4.7080364077192085,2061.4792,186.064,108.0,281.71,C9H12O,"3,4,5-trimethylphenol",527-54-8,381.15,Yaw
CC(C)(OO)c1ccccc1,3,2.679916407719209,854.7004,104.264,83.14,255.02,C9H12O2,cumene hydroperoxide,80-15-9,264.26,Yaw
CCCSc1ccccc1,"1,2",4.317536407719208,1799.3354,197.2,93.09,250.78,C9H12S,propyl phenyl sulfide,874-79-3,228.15,Yaw
CC(C)Sc1ccccc1,2,3.746176407719209,1589.2814,199.48,82.96,261.83,C9H12S,isopropyl phenyl sulfide,3019-20-3,228.15,Yaw
CCSc1cccc(C)c1,2,4.106856407719208,1733.7151,197.39,92.16,258.15,C9H12S,3-methyl-(1-thiapropyl)-benzene,34786-24-8,228.15,Yaw
CCSc1ccc(C)cc1,2,4.138126407719208,1746.1298,197.2,92.91,257.87,C9H12S,4-methyl-(1-thiapropyl)-benzene,622-63-9,228.15,Yaw
CCc1ccccc1SC,2,4.401676407719209,1850.6479,195.68,98.89,255.63,C9H12S,2-ethyl-(1-thiaethyl)-benzene,20760-06-9,228.15,Yaw
CCc1cccc(SC)c1,2,4.571766407719209,1902.5878,191.399,103.46,254.09,C9H12S,3-ethyl-(1-thiaethyl)-benzene,---,228.15,Yaw
CCc1ccc(SC)cc1,2,4.571766407719209,1902.5878,191.399,103.46,254.09,C9H12S,4-ethyl-(1-thiaethyl)-benzene,---,228.15,Yaw
CSc1cccc(C)c1C,2,4.768696407719209,1977.9386,190.014,107.44,252.71,C9H12S,"2,3-dimethyl-(1-thiaethyl)-benzene",---,228.15,Yaw
CSc1ccc(C)cc1C,2,4.768696407719209,1977.9386,190.014,107.44,252.71,C9H12S,"2,4-dimethyl-(1-thiaethyl)-benzene",---,228.15,Yaw
CSc1cc(C)ccc1C,2,4.768696407719209,1977.9386,190.014,107.44,252.71,C9H12S,"2,5-dimethyl-(1-thiaethyl)-benzene",---,228.15,Yaw
CSc1c(C)cccc1C,2,4.768696407719209,1977.9386,190.014,107.44,252.71,C9H12S,"2,6-dimethyl-(1-thiaethyl)-benzene",---,228.15,Yaw
CSc1ccc(C)c(C)c1,2,4.768696407719209,1977.9386,190.014,107.44,252.71,C9H12S,"3,4-dimethyl-(1-thiaethyl)-benzene",---,228.15,Yaw
CSc1cc(C)cc(C)c1,2,4.768696407719209,1977.9386,190.014,107.44,252.71,C9H12S,"3,5-dimethyl-(1-thiaethyl)-benzene",---,228.15,Yaw
SCCCc1ccccc1,2,4.150676407719208,1773.0363,192.407,101.56,268.16,C9H12S,benzenepropanethiol,24734-68-7,247.85088540255592,ML