smiles,code,A [log10(atm)],B [C],C [C],TMIN [C],TMAX [C],FORMULA,NAME,CAS No,mp [K],mp_type
C[C@H]1CCC[C@H](C)C1,"1,2",4.071616407719208,1416.5023,225.047,12.92,150.62,C8H16,"trans-1,3-dimethylcyclohexane",2207-03-6,183.06,Yaw
CC1CCC(C)CC1,"1,2",4.272306407719209,1464.5024,221.94,16.07,146.83,C8H16,"1,4-dimethylcyclohexane",589-90-2,201.53,Yaw
C[C@H]1CC[C@H](C)CC1,"1,2",3.993826407719209,1368.5795,223.224,9.74,147.38,C8H16,"trans-1,4-dimethylcyclohexane",2207-04-7,176.4753106083655,ML
C1CCCCCCC1,3,4.326226407719209,1570.93,217.914,30.0,172.36,C8H16,cyclooctane,292-64-8,287.95,Yaw
C=CCCCCCC,"1,2",4.196826407719208,1455.8408,225.041,14.5,148.65,C8H16,1-octene,111-66-0,171.46,Yaw
CC=CCCCCC,"1,2",4.498986407719209,1557.515,221.342,22.79,149.67,C8H16,oct-2-ene,111-67-1,186.15,Yaw
C/C=C\CCCCC,"1,2",4.1841064077192085,1410.1506,212.175,20.33,150.98,C8H16,cis-2-octene,7642-04-8,164.32400988814848,ML
CCC=CCCCC,"1,2",4.226576407719208,1465.2539,223.726,16.19,149.53,C8H16,cis-3-octene,14850-22-7,147.15,Yaw
CCCC=CCCC,"1,2",4.611936407719209,1584.9183,221.356,22.75,146.3,C8H16,oct-4-ene,592-99-4,183.25,Yaw
C=C(C)CCCCC,"1,2",4.154646407719208,1404.4357,219.19,13.51,145.26,C8H16,2-methyl-1-heptene,15870-10-7,185.77,Yaw
C=CC(C)CCCC,"1,2",4.150936407719208,1381.2372,221.753,7.24,137.02,C8H16,3-methyl-1-heptene,4810-09-7,170.14,Yaw
C=CCC(C)CCC,"1,2",4.168236407719209,1394.9524,222.163,8.44,138.55,C8H16,4-methyl-1-heptene,13151-05-8,170.14,Yaw
C=CCCC(C)CC,"1,2",4.158986407719208,1396.3012,222.431,8.75,139.5,C8H16,5-methyl-1-heptene,13151-04-7,170.14,Yaw
C=CCCCC(C)C,"1,2",4.1727264077192086,1398.973,222.416,8.68,138.92,C8H16,6-methyl-1-heptene,5026-76-6,170.14,Yaw
CCCCC=C(C)C,"1,2",4.168486407719208,1448.5633,224.654,14.81,149.9,C8H16,2-methyl-2-heptene,627-97-4,170.14,Yaw
C/C=C\C(C)CCC,2,3.902456407719209,1332.1848,221.166,9.18,148.74,C8H16,4-methyl-cis-2-heptene,66225-16-9,170.14,Yaw
C/C=C/C(C)CCC,2,3.902456407719209,1332.1848,221.166,9.18,148.74,C8H16,4-methyl-trans-2-heptene,66225-17-0,170.14,Yaw
C/C=C\CC(C)CC,2,4.064076407719209,1392.7722,222.499,11.78,147.62,C8H16,5-methyl-cis-2-heptene,24608-84-2,170.14,Yaw
C/C=C/CC(C)CC,2,4.064076407719209,1392.7722,222.499,11.78,147.62,C8H16,5-methyl-trans-2-heptene,24608-85-3,170.14,Yaw
CC=CCCC(C)C,2,4.3516164077192085,1495.8355,223.538,16.47,145.75,C8H16,6-methyl-2-heptene,73548-72-8,170.14,Yaw
C/C=C\CCC(C)C,2,4.022866407719208,1377.2688,222.156,11.13,147.89,C8H16,6-methyl-cis-2-heptene,66225-18-1,170.14,Yaw
C/C=C/CCC(C)C,2,4.022866407719208,1377.2688,222.156,11.13,147.89,C8H16,6-methyl-trans-2-heptene,51065-65-7,170.14,Yaw
CCC=CCC(C)C,2,4.2668764077192085,1469.0787,224.094,14.87,146.34,C8H16,6-methyl-3-heptene,3404-57-7,170.14,Yaw
CCCC=CC(C)C,2,4.144486407719208,1430.3955,224.928,12.47,147.24,C8H16,2-methyl-3-heptene,17618-76-7,165.65,Yaw
CCCC=C(C)CC,"1,2",4.484766407719208,1541.0826,222.426,19.67,145.92,C8H16,3-methyl-3-heptene,7300-03-0,170.14,Yaw
CCC=C(C)CCC,2,4.529196407719208,1551.8391,222.426,19.67,144.6,C8H16,4-methyl-3-heptene,4485-16-9,170.14,Yaw
CCC=CC(C)CC,2,4.144486407719208,1430.3955,224.928,12.47,147.24,C8H16,5-methyl-3-heptene,13172-91-3,170.14,Yaw
CC/C=C\C(C)CC,2,3.8243964077192087,1302.9445,220.489,7.89,149.31,C8H16,5-methyl-cis-3-heptene,50422-80-5,170.14,Yaw
CC/C=C/C(C)CC,2,3.8243964077192087,1302.9445,220.489,7.89,149.31,C8H16,5-methyl-trans-3-heptene,53510-18-2,170.14,Yaw
CC/C=C\CC(C)C,2,3.9419364077192087,1346.8719,221.474,9.84,148.45,C8H16,6-methyl-cis-3-heptene,66225-19-2,170.14,Yaw
CC/C=C/CC(C)C,2,3.971636407719209,1371.7942,225.194,9.2,148.53,C8H16,6-methyl-trans-3-heptene,66225-20-5,170.14,Yaw
C=C(CC)CCCC,2,4.406756407719208,1579.166,238.147,13.01,146.48,C8H16,2-ethyl-1-hexene,1632-16-2,170.14,Yaw
C=CC(CC)CCC,2,3.785226407719208,1293.1278,221.421,6.8,149.72,C8H16,3-ethyl-1-hexene,3404-58-8,170.14,Yaw
C=CCC(CC)CC,2,3.684326407719209,1217.3429,210.207,8.54,149.6,C8H16,4-ethyl-1-hexene,16746-85-3,170.14,Yaw
C=C(C)C(C)CCC,2,3.7141764077192088,1251.5002,216.749,6.93,149.92,C8H16,"2,3-dimethyl-1-hexene",16746-86-4,170.14,Yaw
C=C(C)CC(C)CC,2,3.739626407719209,1260.5512,216.875,7.4,149.71,C8H16,"2,4-dimethyl-1-hexene",16746-87-5,170.14,Yaw
C=C(C)CCC(C)C,2,3.754616407719209,1266.0374,216.991,7.67,149.6,C8H16,"2,5-dimethyl-1-hexene",6975-92-4,170.14,Yaw
C=CC(C)(C)CCC,2,3.380836407719209,1111.3988,208.531,2.7,152.34,C8H16,"3,3-dimethyl-1-hexene",3404-77-1,170.14,Yaw
C=CC(C)C(C)CC,2,3.758556407719209,1265.7351,216.557,7.89,149.52,C8H16,"3,4-dimethyl-1-hexene",16745-94-1,170.14,Yaw
C=CC(C)CC(C)C,2,3.470016407719209,1160.0519,214.103,2.7,151.96,C8H16,"3,5-dimethyl-1-hexene",7423-69-0,170.14,Yaw
C=CCC(C)(C)CC,2,3.4881564077192087,1148.9806,209.191,4.81,151.32,C8H16,"4,4-dimethyl-1-hexene",1647-08-1,170.14,Yaw
C=CCC(C)C(C)C,2,3.647256407719208,1224.9076,215.639,5.94,150.42,C8H16,"4,5-dimethyl-1-hexene",16106-59-5,170.14,Yaw
C=CCCC(C)(C)C,2,3.3301064077192084,1092.9417,207.996,1.74,152.82,C8H16,"5,5-dimethyl-1-hexene",7116-86-1,170.14,Yaw
C/C=C\C(CC)CC,2,3.863196407719209,1317.472,220.827,8.54,149.02,C8H16,4-ethyl-cis-2-hexene,54616-49-8,170.14,Yaw
C/C=C/C(CC)CC,2,3.863196407719209,1317.472,220.827,8.54,149.02,C8H16,4-ethyl-trans-2-hexene,19781-63-6,170.14,Yaw
CCCC(C)=C(C)C,"1,2",4.063726407719209,1376.0181,216.75,14.73,148.95,C8H16,"2,3-dimethyl-2-hexene",7145-20-2,158.05,Yaw
CCC(C)C=C(C)C,"1,2",4.024186407719209,1311.8486,215.141,7.02,137.21,C8H16,"2,4-dimethyl-2-hexene",14255-23-3,170.14,Yaw
CC(C)=CCC(C)C,"1,2",3.9937864077192087,1293.2724,211.321,8.83,138.9,C8H16,"2,5-dimethyl-2-hexene",3404-78-2,170.14,Yaw
C/C=C\C(C)(C)CC,2,3.425646407719209,1123.1448,207.66,4.0,151.79,C8H16,"4,4-dimethyl-cis-2-hexene",19550-83-5,170.14,Yaw
C/C=C/C(C)(C)CC,2,3.425646407719209,1123.1448,207.66,4.0,151.79,C8H16,"4,4-dimethyl-trans-2-hexene",---,170.14,Yaw
CC=CC(C)C(C)C,2,4.065876407719209,1405.5253,225.484,10.87,147.84,C8H16,"4,5-dimethyl-2-hexene",73548-71-7,170.14,Yaw
C/C=C\C(C)C(C)C,2,3.658656407719208,1224.2269,214.407,6.59,150.2,C8H16,"4,5-dimethyl-cis-2-hexene",65036-71-7,170.14,Yaw
C/C=C/C(C)C(C)C,2,3.658656407719208,1224.2269,214.407,6.59,150.2,C8H16,"4,5-dimethyl-trans-2-hexene",66225-14-7,170.14,Yaw
CC=CCC(C)(C)C,2,3.4556464077192084,1133.4925,207.807,4.6,151.5,C8H16,"5,5-dimethyl-cis-2-hexene",39761-61-0,170.14,Yaw
C/C=C/CC(C)(C)C,2,3.3611464077192084,1100.0042,207.067,2.78,152.4,C8H16,"5,5-dimethyl-trans-2-hexene",39782-43-9,170.14,Yaw
CCC=C(CC)CC,2,3.996046407719208,1369.9654,222.626,10.49,148.13,C8H16,3-ethyl-3-hexene,16789-51-8,170.14,Yaw
CC/C=C\C(C)(C)C,"1,2",3.9654464077192086,1276.3005,216.305,2.01,131.99,C8H16,"2,2-dimethyl-cis-3-hexene",690-92-6,135.8,Yaw
CC/C=C/C(C)(C)C,"1,2",3.916066407719208,1218.1999,210.227,-0.08,126.75,C8H16,"2,2-dimethyl-trans-3-hexene",690-93-7,170.14,Yaw
CC(C)/C=C\C(C)C,"1,2",4.228966407719208,1366.143,224.394,-0.79,123.41,C8H16,"2,5-dimethyl-cis-3-hexene",10557-44-5,170.14,Yaw
CC(C)C=CC(C)C,"1,2",3.984936407719209,1249.7094,211.568,1.48,127.67,C8H16,"2,5-dimethyl-trans-3-hexene",692-70-6,170.14,Yaw
CCC(C)=C(C)CC,2,4.159746407719209,1413.8152,219.676,14.38,146.72,C8H16,"3,4-dimethyl-cis-3-hexene",19550-87-9,170.14,Yaw
C=C(CCC)CCC,2,4.094036407719209,1412.4091,224.788,11.6,147.58,C8H16,2-propyl-1-pentene,15918-08-8,170.14,Yaw
C=C(CCC)C(C)C,2,3.846036407719208,1317.1074,222.254,7.73,149.28,C8H16,2-isopropyl-1-pentene,16746-02-4,170.14,Yaw
C=C(CC)C(C)CC,"1,2",4.026446407719209,1309.0798,213.37,8.23,138.02,C8H16,3-methyl-2-ethyl-1-pentene,3404-67-9,170.14,Yaw
C=C(CC)CC(C)C,2,3.7062964077192087,1248.4127,216.631,6.81,149.98,C8H16,4-methyl-2-ethyl-1-pentene,3404-80-6,170.14,Yaw
C=C(C)C(CC)CC,"1,2",4.179776407719209,1415.8024,229.177,4.43,135.84,C8H16,2-methyl-3-ethyl-1-pentene,19780-66-6,160.25,Yaw
C=CC(C)(CC)CC,"1,2",4.0053564077192085,1286.8644,210.736,7.89,136.66,C8H16,3-methyl-3-ethyl-1-pentene,6196-60-7,170.14,Yaw
C=CC(CC)C(C)C,"1,2",4.034926407719209,1301.5305,215.016,5.0,133.56,C8H16,4-methyl-3-ethyl-1-pentene,61847-80-1,170.14,Yaw
C=C(C)C(C)(C)CC,"1,2",3.914706407719208,1248.6088,210.644,4.8,134.88,C8H16,"2,3,3-trimethyl-1-pentene",560-23-6,204.15,Yaw
C=C(C)C(C)C(C)C,"1,2",3.946036407719209,1255.6056,210.194,5.29,134.28,C8H16,"2,3,4-trimethyl-1-pentene",565-76-4,170.14,Yaw
C=C(C)CC(C)(C)C,"1,2",4.018376407719209,1329.709,229.057,-3.65,128.65,C8H16,"2,4,4-trimethyl-1-pentene",107-39-1,179.7,Yaw
C=CC(C)(C)C(C)C,"1,2",3.840956407719209,1186.0315,203.936,3.35,131.11,C8H16,"3,3,4-trimethyl-1-pentene",560-22-5,170.14,Yaw
C=CC(C)C(C)(C)C,"1,2",3.837776407719209,1180.3466,203.71,2.7,130.03,C8H16,"3,4,4-trimethyl-1-pentene",564-03-4,170.14,Yaw
CCC(CC)=C(C)C,2,3.881296407719209,1277.6978,208.99,12.75,147.88,C8H16,2-methyl-3-ethyl-2-pentene,19780-67-7,170.14,Yaw
CC(C)=C(C)C(C)C,"1,2",3.9819864077192086,1320.1346,214.976,10.19,143.66,C8H16,"2,3,4-trimethyl-2-pentene",565-77-5,159.85,Yaw
CC(C)=CC(C)(C)C,"1,2",4.007826407719208,1321.1561,224.794,-0.44,131.62,C8H16,"2,4,4-trimethyl-2-pentene",107-40-4,166.84,Yaw
CC=C(C)C(C)(C)C,2,4.144486407719208,1430.3955,224.928,12.47,147.24,C8H16,"3,4,4-trimethyl-2-pentene",598-96-9,170.14,Yaw
C=C(C(C)C)C(C)C,2,3.4001364077192084,1121.8427,209.737,2.7,152.25,C8H16,3-methyl-2-isopropyl-1-butene,111823-35-9,170.14,Yaw
C=C(CC)C(C)(C)C,"1,2",3.612836407719208,1167.1976,205.869,6.59,146.57,C8H16,"3,3-dimethyl-2-ethyl-1-butene",18231-53-3,170.14,Yaw
CCCCCCCC(Br)Br,2,4.788596407719209,2059.5297,188.232,120.57,270.71,C8H16Br2,"1,1-dibromooctane",62168-26-7,274.55434843559834,ML
CCCCCCC(Br)CBr,2,4.828536407719208,2075.3665,187.954,121.37,270.44,C8H16Br2,"1,2-dibromooctane",6269-92-7,279.93232882236515,ML
CCCCCC(Br)CCBr,2,4.869016407719209,2091.4104,187.676,122.17,270.16,C8H16Br2,"1,3-dibromooctane",---,279.62154309695944,ML
CCCCC(Br)CCCBr,2,4.9100364077192085,2107.6657,187.398,122.97,269.89,C8H16Br2,"1,4-dibromooctane",70690-24-3,278.79057821132204,ML
CCCC(Br)CCCCBr,2,4.951616407719208,2124.1366,187.12,123.77,269.63,C8H16Br2,"1,5-dibromooctane",17912-17-3,279.8315206163253,ML
CCC(Br)CCCCCBr,2,4.9937664077192085,2140.8275,186.842,124.57,269.36,C8H16Br2,"1,6-dibromooctane",---,277.86049844620555,ML
CC(Br)CCCCCCBr,2,5.036486407719209,2157.743,186.564,125.37,269.09,C8H16Br2,"1,7-dibromooctane",---,278.396986999524,ML
BrCCCCCCCCBr,"1,2",4.0901464077192085,1865.6637,186.286,126.17,306.09,C8H16Br2,"1,8-dibromooctane",4549-32-0,288.65,Yaw
CCCCCCC(C)(Br)Br,2,4.416356407719209,1911.7088,191.012,112.57,273.52,C8H16Br2,"2,2-dibromooctane",---,270.99470129099956,ML
CCCCCC(Br)C(C)Br,2,4.451496407719208,1925.6817,190.734,113.37,273.23,C8H16Br2,"2,3-dibromooctane",---,272.68701826360297,ML
CCCCC(Br)CC(C)Br,2,4.487076407719209,1939.8253,190.456,114.17,272.95,C8H16Br2,"2,4-dibromooctane",---,274.4751574275089,ML
CCCC(Br)CCC(C)Br,2,4.523096407719208,1954.1431,190.178,114.97,272.66,C8H16Br2,"2,5-dibromooctane",---,277.0142068795503,ML
CCC(Br)CCCC(C)Br,2,4.559586407719209,1968.6382,189.9,115.77,272.38,C8H16Br2,"2,6-dibromooctane",---,273.80914082852513,ML
CC(Br)CCCCC(C)Br,2,4.596536407719209,1983.314,189.622,116.57,272.1,C8H16Br2,"2,7-dibromooctane",---,272.8169764199463,ML
CCCC(Br)C(Br)CCC,2,4.633956407719209,1998.1741,189.344,117.37,271.82,C8H16Br2,"4,5-dibromooctane",61539-75-1,278.376040506376,ML
CCCCCCCC(Cl)Cl,2,4.447966407719209,1867.0557,198.24,96.77,251.98,C8H16Cl2,"1,1-dichlorooctane",20395-24-8,279.35,Yaw
CCCCCCC(Cl)CCl,2,4.237766407719208,1777.6464,197.962,92.57,253.59,C8H16Cl2,"1,2-dichlorooctane",---,279.35,Yaw
CCCCCC(Cl)CCCl,2,4.271886407719209,1790.7704,197.684,93.37,253.29,C8H16Cl2,"1,3-dichlorooctane",---,279.35,Yaw
CCCCC(Cl)CCCCl,2,4.306436407719208,1804.0551,197.406,94.17,253.0,C8H16Cl2,"1,4-dichlorooctane",---,279.35,Yaw
CCCC(Cl)CCCCCl,2,4.341416407719208,1817.5033,197.128,94.97,252.71,C8H16Cl2,"1,5-dichlorooctane",---,279.35,Yaw
CCC(Cl)CCCCCCl,2,4.376846407719208,1831.1184,196.85,95.77,252.41,C8H16Cl2,"1,6-dichlorooctane",---,279.35,Yaw
CC(Cl)CCCCCCCl,2,4.412726407719209,1844.9034,196.572,96.57,252.12,C8H16Cl2,"1,7-dichlorooctane",---,279.35,Yaw
ClCCCCCCCCCl,"1,2",4.0505664077192085,1771.49,196.294,102.37,276.16,C8H16Cl2,"1,8-dichlorooctane",2162-99-4,279.35,Yaw
CCCCCCC(C)(Cl)Cl,2,3.8886364077192086,1643.082,201.02,83.77,256.97,C8H16Cl2,"2,2-dichlorooctane",---,279.35,Yaw
CCCCCC(Cl)C(C)Cl,2,4.376096407719209,1839.3213,198.796,95.17,252.56,C8H16Cl2,"2,3-dichlorooctane",21948-47-0,218.05,Yaw
CCCCC(Cl)CC(C)Cl,2,4.170786407719208,1751.8684,198.518,90.97,254.19,C8H16Cl2,"2,4-dichlorooctane",---,279.35,Yaw
CCCC(Cl)CCC(C)Cl,2,4.204076407719208,1764.68,198.24,91.77,253.89,C8H16Cl2,"2,5-dichlorooctane",---,279.35,Yaw
CCC(Cl)CCCC(C)Cl,2,4.237766407719208,1777.6464,197.962,92.57,253.59,C8H16Cl2,"2,6-dichlorooctane",---,279.35,Yaw
CC(Cl)CCCCC(C)Cl,2,4.271886407719209,1790.7704,197.684,93.37,253.29,C8H16Cl2,"2,7-dichlorooctane",---,279.35,Yaw
CC(C)(Cl)CCC(C)(C)Cl,2,4.105426407719208,1726.6981,199.074,89.37,254.79,C8H16Cl2,"2,5-dichloro-2,5-dimethylhexane",6223-78-5,340.65,Yaw
ClCCO[Si](OCCCl)(OCCCl)OCCCl,3,7.282586407719208,4237.0,273.15,173.85,333.73,C8H16Cl4O4Si,tetrakis(2-chloroethoxy)silane,18290-84-1,262.71481118477715,ML
CCCCCCCC(F)F,3,3.844726407719208,1491.8366,216.588,43.97,204.4,C8H16F2,"1,1-difluorooctane",61350-03-6,213.34053005233955,ML
CCCCCCC(F)CF,3,3.876756407719209,1503.1888,216.31,44.77,204.08,C8H16F2,"1,2-difluorooctane",---,216.4516421073143,ML
CCCCCC(F)CCF,3,3.909196407719208,1514.681,216.032,45.57,203.76,C8H16F2,"1,3-difluorooctane",---,218.27538398187002,ML
CCCCC(F)CCCF,3,3.9420564077192086,1526.3159,215.754,46.37,203.44,C8H16F2,"1,4-difluorooctane",---,218.4473495160436,ML
CCCC(F)CCCCF,3,3.975336407719209,1538.0962,215.476,47.17,203.13,C8H16F2,"1,5-difluorooctane",---,218.51092923286635,ML
CCC(F)CCCCCF,3,4.009046407719208,1550.0247,215.198,47.97,202.82,C8H16F2,"1,6-difluorooctane",---,217.95645801693567,ML
CC(F)CCCCCCF,3,4.043196407719209,1562.1044,214.92,48.77,202.51,C8H16F2,"1,7-difluorooctane",---,217.1882414812156,ML
FCCCCCCCCF,3,4.077796407719209,1574.3382,214.642,49.57,202.21,C8H16F2,"1,8-difluorooctane",---,231.1977804187603,ML
CCCCCCC(C)(F)F,3,3.5451964077192084,1385.4672,219.368,35.97,207.7,C8H16F2,"2,2-difluorooctane",---,209.3820071595219,ML
CCCCCC(F)C(C)F,3,3.573546407719209,1395.5537,219.09,36.77,207.36,C8H16F2,"2,3-difluorooctane",---,209.5984764407685,ML
CCCCC(F)CC(C)F,3,3.602236407719209,1405.7566,218.812,37.57,207.02,C8H16F2,"2,4-difluorooctane",---,215.11180031134225,ML
CCCC(F)CCC(C)F,3,3.6312664077192087,1416.0781,218.534,38.37,206.68,C8H16F2,"2,5-difluorooctane",---,214.05779443055988,ML
CCC(F)CCCC(C)F,3,3.660656407719209,1426.5204,218.256,39.17,206.35,C8H16F2,"2,6-difluorooctane",---,214.39772018029274,ML
CC(F)CCCCC(C)F,3,3.690406407719209,1437.0856,217.978,39.97,206.02,C8H16F2,"2,7-difluorooctane",---,213.49262330674446,ML
CCCCCCCC(I)I,2,4.478956407719209,2173.6511,173.332,168.45,346.94,C8H16I2,"1,1-diiodooctane",66225-22-7,291.65,Yaw
CCCCCCC(I)CI,2,4.543286407719209,2202.3448,172.776,170.05,346.37,C8H16I2,"1,2-diiodooctane",---,291.65,Yaw
CCCCCC(I)CCI,2,4.609086407719208,2231.6773,172.22,171.65,345.81,C8H16I2,"1,3-diiodooctane",---,291.65,Yaw
CCCCC(I)CCCI,2,4.676396407719209,2261.6707,171.664,173.25,345.25,C8H16I2,"1,4-diiodooctane",---,291.65,Yaw
CCCC(I)CCCCI,2,4.745286407719209,2292.3482,171.108,174.85,344.69,C8H16I2,"1,5-diiodooctane",---,291.65,Yaw
CCC(I)CCCCCI,2,4.815796407719208,2323.7339,170.552,176.45,344.14,C8H16I2,"1,6-diiodooctane",---,291.65,Yaw
CC(I)CCCCCCI,2,4.887996407719209,2355.8533,169.996,178.05,343.6,C8H16I2,"1,7-diiodooctane",---,291.65,Yaw
ICCCCCCCCI,2,4.961936407719208,2388.7329,169.44,179.65,343.06,C8H16I2,"1,8-diiodooctane",24772-63-2,291.65,Yaw
CCCCCCC(C)(I)I,2,4.177676407719209,2039.056,176.112,160.45,349.87,C8H16I2,"2,2-diiodooctane",---,291.65,Yaw
CCCCCC(I)C(C)I,2,4.235366407719209,2064.855,175.556,162.05,349.27,C8H16I2,"2,3-diiodooctane",---,291.65,Yaw
CCCCC(I)CC(C)I,2,4.294286407719208,2091.1959,175.0,163.65,348.68,C8H16I2,"2,4-diiodooctane",---,291.65,Yaw
CCCC(I)CCC(C)I,2,4.354506407719208,2118.0964,174.444,165.25,348.1,C8H16I2,"2,5-diiodooctane",---,291.65,Yaw
CCC(I)CCCC(C)I,2,4.416046407719208,2145.575,173.888,166.85,347.51,C8H16I2,"2,6-diiodooctane",---,291.65,Yaw
CC(I)CCCCC(C)I,2,4.478956407719209,2173.6511,173.332,168.45,346.94,C8H16I2,"2,7-diiodooctane",---,291.65,Yaw
CCCCCCCC=O,"1,2",4.830146407719209,1833.4103,208.526,64.67,196.28,C8H16O,1-octanal,124-13-0,286.65,Yaw
CCCCCC(C)C=O,2,4.5952364077192085,1738.9507,210.75,57.77,194.2,C8H16O,2-methylheptanal,16630-91-4,286.65,Yaw
CCCCC(C)CC=O,2,4.5952364077192085,1738.9507,210.75,57.77,194.2,C8H16O,3-methylheptanal,27608-03-3,286.65,Yaw
CCCC(C)CCC=O,2,4.5952364077192085,1738.9507,210.75,57.77,194.2,C8H16O,4-methylheptanal,---,286.65,Yaw
CCC(C)CCCC=O,2,4.5952364077192085,1738.9507,210.75,57.77,194.2,C8H16O,5-methylheptanal,75579-88-3,286.65,Yaw
CC(C)CCCCC=O,2,4.5952364077192085,1738.9507,210.75,57.77,194.2,C8H16O,6-methylheptanal,52738-99-5,286.65,Yaw
CCCCC(C)(C)C=O,2,4.491176407719209,1702.6927,211.445,55.77,194.91,C8H16O,"2,2-dimethylhexanal",---,286.65,Yaw
CCCC(C)C(C)C=O,2,4.339936407719208,1649.9401,212.502,52.73,196.01,C8H16O,"2,3-dimethylhexanal",---,286.65,Yaw
CCC(C)CC(C)C=O,2,4.339936407719208,1649.9401,212.502,52.73,196.01,C8H16O,"2,4-dimethylhexanal",---,286.65,Yaw
CC(C)CCC(C)C=O,2,4.339936407719208,1649.9401,212.502,52.73,196.01,C8H16O,"2,5-dimethylhexanal",---,286.65,Yaw
CCCCC(C=O)CC,"1,2",4.6805164077192085,1757.0809,211.404,56.39,189.8,C8H16O,2-ethylhexanal,123-05-7,286.65,Yaw
CCCC(C=O)CCC,2,4.499216407719208,1706.3653,211.584,55.87,194.87,C8H16O,2-propylpentanal,18295-59-5,286.65,Yaw
CCCCCCC(C)=O,"1,2",4.5383664077192085,1728.3017,207.97,61.27,199.9,C8H16O,2-octanone,111-13-7,252.85,Yaw
CCCCCC(=O)CC,"1,2",4.597086407719209,1725.515,209.499,56.87,192.15,C8H16O,3-octanone,106-68-3,250.15,Yaw
CCCCC(=O)CCC,"1,2",4.410846407719209,1661.1257,210.75,53.27,193.43,C8H16O,4-octanone,589-63-9,240.91,Yaw
CCCCC(C)C(C)=O,"1,2",4.7943264077192085,1765.8558,210.472,54.07,182.53,C8H16O,3-methyl-2-heptanone,2371-19-9,240.91,Yaw
CCCC(C)CC(C)=O,2,4.439306407719209,1661.5737,211.612,51.29,189.9,C8H16O,4-methyl-2-heptanone,6137-06-0,240.91,Yaw
CCC(C)CCC(C)=O,"1,2",4.696956407719209,1739.5829,210.514,53.95,185.21,C8H16O,5-methyl-2-heptanone,18217-12-4,240.91,Yaw
CC(=O)CCCC(C)C,"1,2",4.375766407719208,1664.9277,209.638,56.47,198.96,C8H16O,6-methyl-2-heptanone,928-68-7,240.91,Yaw
CCCCC(=O)C(C)C,"1,2",4.519806407719209,1673.1868,212.14,49.27,184.46,C8H16O,2-methyl-3-heptanone,13019-20-0,240.91,Yaw
CCCC(C)C(=O)CC,2,4.439306407719209,1661.5737,211.612,51.29,189.9,C8H16O,4-methyl-3-heptanone,6137-11-7,240.91,Yaw
CCC(=O)CC(C)CC,"1,2",4.455676407719209,1657.0746,212.352,49.16,186.5,C8H16O,5-methyl-3-heptanone,541-85-5,216.5,Yaw
CCC(=O)CCC(C)C,2,4.5813464077192085,1709.5156,210.472,54.07,188.92,C8H16O,6-methyl-3-heptanone,624-42-0,240.91,Yaw
CCCC(=O)CC(C)C,"1,2",4.525296407719209,1661.2483,213.252,46.07,180.01,C8H16O,2-methyl-4-heptanone,626-33-5,240.91,Yaw
CCCC(=O)C(C)CC,2,4.403016407719209,1648.2336,211.668,50.63,190.15,C8H16O,3-methyl-4-heptanone,15726-15-5,240.91,Yaw
CCCC(C)(C)C(C)=O,2,4.034816407719209,1521.3943,214.392,42.79,193.07,C8H16O,"3,3-dimethyl-2-hexanone",26118-38-7,240.91,Yaw
CCC(C)C(C)C(C)=O,"1,2",4.519806407719209,1673.1868,212.14,49.27,184.46,C8H16O,"3,4-dimethyl-2-hexanone",19550-10-8,240.91,Yaw
CC(C)CC(=O)C(C)C,"1,2",4.512146407719209,1636.1446,215.059,40.87,173.47,C8H16O,"2,5-dimethyl-3-hexanone",1888-57-9,240.91,Yaw
CCCC(=O)C(C)(C)C,"1,2",4.519516407719209,1633.0214,215.476,39.67,171.63,C8H16O,"2,2-dimethyl-3-hexanone",5405-79-8,240.91,Yaw
CCC(=O)C(C)(C)CC,"1,2",4.389196407719209,1606.3162,214.92,41.27,178.0,C8H16O,"4,4-dimethyl-3-hexanone",19550-14-2,240.91,Yaw
CCC(C(C)=O)C(C)C,"1,2",4.546726407719208,1668.4828,213.113,46.47,179.87,C8H16O,3-ethyl-4-methyl-2-pentanone,71172-57-1,240.91,Yaw
CCC(C)(CC)C(C)=O,"1,2",4.493606407719208,1651.1994,213.405,45.63,180.43,C8H16O,3-ethyl-3-methyl-2-pentanone,19780-65-5,240.91,Yaw