smiles,code,A [log10(atm)],B [C],C [C],TMIN [C],TMAX [C],FORMULA,NAME,CAS No,mp [K],mp_type
OCCSCCO,"1,2",18.808506407719207,34500.0,1549.12,116.45,312.8,C4H10O2S,bis(2-hydroxyethyl) sulfide,111-48-8,262.95,Yaw
CCS(=O)(=O)CC,"1,2",4.521906407719209,1958.5311,187.12,118.77,276.89,C4H10O2S,diethyl sulfone,597-35-3,346.65,Yaw
OCCOCCO,"1,2",4.776506407719209,2065.8762,186.657,123.66,274.94,C4H10O3,diethylene glycol,111-46-6,262.7,Yaw
CCOS(=O)(=O)OCC,"1,2",4.299606407719208,1781.2974,204.905,83.31,240.58,C4H10O4S,diethyl sulfate,64-67-5,248.15,Yaw
CCCOS(=O)(=O)OC,3,3.642606407719208,1548.4133,197.534,82.8,265.84,C4H10O4S,methyl propyl sulfate,5867-91-4,248.15,Yaw
CCCCS,"1,2",4.701036407719209,1535.0872,228.692,4.54,120.19,C4H10S,1-butanethiol,109-79-5,157.46,Yaw
CCC(C)S,"1,2",4.670116407719209,1481.7791,232.44,-6.25,106.71,C4H10S,2-butanethiol,513-53-1,133.02,Yaw
CC(C)CS,"1,2",4.698036407719209,1500.1499,231.464,-3.44,109.71,C4H10S,isobutyl mercaptan,513-44-0,128.31,Yaw
CCCSC,"1,2",4.174586407719208,1328.8987,222.78,-3.32,120.29,C4H10S,2-thiapentane,3877-15-4,160.17,Yaw
CCSCC,"1,2",4.334536407719209,1425.898,237.112,-7.7,116.4,C4H10S,3-thiapentane,352-93-2,169.2,Yaw
CSC(C)C,"1,2",4.081926407719209,1268.8353,224.993,-12.2,110.6,C4H10S,3-methyl-2-thiabutane,1551-21-9,171.65,Yaw
SCCCCS,"1,2",4.184466407719208,1633.0266,194.709,74.53,225.8,C4H10S2,"1,4-butanedithiol",1191-08-8,219.25,Yaw
CC(S)CCS,2,3.895566407719208,1566.9301,204.495,66.77,231.43,C4H10S2,"1,3-butanedithiol",24330-52-7,219.25,Yaw
CCC(S)CS,2,3.6006564077192085,1458.3202,207.275,58.77,234.69,C4H10S2,"1,2-butanedithiol",16128-68-0,219.25,Yaw
CC(S)C(C)S,2,3.647236407719209,1475.503,206.814,60.1,234.13,C4H10S2,"2,3-butanedithiol",4532-64-3,219.25,Yaw
CCCSSC,2,4.466756407719209,1615.5661,213.947,40.57,173.88,C4H10S2,"2,3-dithiahexane",2179-60-4,171.63,Yaw
CCSSCC,"1,2",4.431996407719208,1702.7095,232.135,37.59,180.05,C4H10S2,"3,4-dithiahexane",110-81-6,171.63,Yaw
CCSCSC,2,4.886636407719209,1754.9322,211.39,47.93,171.32,C4H10S2,"2,4-dithiahexane",---,171.63,Yaw
CSCCSC,2,5.892026407719209,2081.1099,205.468,62.27,166.76,C4H10S2,"2,5-dithiahexane",6628-18-8,171.63,Yaw
CC[Te]CC,3,5.282396407719208,2161.276,271.647,21.85,162.23,C4H10Te,diethyl telluride,627-54-3,200.31067664463603,ML
CC[SiH](Cl)CC,3,4.538686407719209,1689.5,273.15,-9.97,125.54,C4H11ClSi,chlorodiethylsilane,1609-19-4,161.15014994334518,ML
CCCCN,"1,2",4.308466407719209,1311.9496,226.655,-14.68,100.72,C4H11N,butylamine,109-73-9,224.05,Yaw
CC(C)CN,"1,2",4.424716407719209,1328.6455,232.428,-21.72,89.77,C4H11N,isobutylamine,78-81-9,188.55,Yaw
CCC(C)N,"1,2",4.298626407719208,1292.3262,237.787,-28.65,85.49,C4H11N,sec-butylamine,13952-84-6,168.65,Yaw
CC(C)(C)N,"1,2",4.256016407719208,1212.5856,240.061,-66.96,66.54,C4H11N,tert-butylamine,75-64-9,206.19,Yaw
CCCNC,"1,2",4.102096407719209,1062.2335,195.899,-18.35,83.56,C4H11N,methyl-propylamine,627-35-0,212.75,Yaw
CNC(C)C,"1,2",3.4241064077192087,669.1038,143.86,-17.73,70.39,C4H11N,methylisopropylamine,4747-21-1,218.05,Yaw
CCNCC,"1,2",3.671326407719208,828.3488,170.077,-20.88,75.7,C4H11N,diethylamine,109-89-7,223.35,Yaw
CCN(C)C,"1,2",3.4887164077192088,810.9481,195.899,-44.87,58.5,C4H11N,dimethylethylamine,598-56-1,133.15,Yaw
CN(C)CCO,"1,2",4.998006407719209,1763.6068,218.812,37.57,156.67,C4H11NO,dimethylethanolamine,108-01-0,214.15,Yaw
CC(N)CCO,3,4.480166407719208,1696.2102,213.339,53.32,192.54,C4H11NO,3-amino-1-butanol,2867-59-6,281.87,Yaw
CC(N)C(C)O,3,4.749826407719208,1789.9711,211.584,58.37,190.76,C4H11NO,3-amino-2-butanol,42551-55-3,292.15,Yaw
NCCCCO,"1,2",4.941926407719208,2002.0933,199.074,94.37,232.33,C4H11NO,4-amino-1-butanol,13325-10-5,281.87,Yaw
CCC(N)CO,3,5.680366407719209,2112.2171,206.58,72.77,186.07,C4H11NO,"2-amino-1-butanol, ()-",13054-87-0,272.15,Yaw
CC(C)(N)CO,"1,2",5.002276407719209,1877.8811,210.055,62.77,189.39,C4H11NO,2-amino-2-methyl-1-propanol,124-68-5,298.65,Yaw
CCNCCO,"1,2",4.991896407719208,1889.3995,208.943,65.97,193.84,C4H11NO,2-(ethylamino)ethanol,110-73-6,281.87,Yaw
CC(O)CCN,3,4.480166407719208,1696.2102,213.339,53.32,192.54,C4H11NO,4-amino-2-butanol,39884-48-5,281.87,Yaw
CCC(O)CN,"1,2",4.996826407719209,1888.5996,209.11,65.49,193.08,C4H11NO,1-amino-2-butanol,13552-21-1,276.15,Yaw
CC(C)(O)CN,"1,2",4.999996407719209,1824.8186,214.114,51.09,174.23,C4H11NO,1-amino-2-methyl-2-propanol,2854-16-2,281.87,Yaw
OCCNCCO,"1,2",5.505376407719208,2515.6387,188.552,152.03,294.82,C4H11NO2,diethanolamine,111-42-2,301.15,Yaw
NCCOCCO,3,8.828136407719208,3244.652,170.364,132.62,210.15,C4H11NO2,2-aminoethoxyethanol,929-06-6,244.5406507608524,ML
CC(N)(CO)CO,3,15.661446407719207,5843.4516,185.94,147.17,194.48,C4H11NO2,"2-amino-2-methyl-1,3-propanediol",115-69-5,383.15,Yaw
CNCC(O)CO,3,14.05768640771921,5265.5765,187.398,142.97,195.37,C4H11NO2,"3-methylamino-1,2-propanediol",40137-22-2,342.15,Yaw
CB(C)N(C)C,3,4.1674964077192085,1240.6114,232.688,-27.57,88.18,C4H12BN,(dimethylamino)dimethylborane,1113-30-0,181.15,Yaw
C[Si](C)(Cl)O[Si](C)(C)Cl,3,4.046636407719209,1388.9235,205.229,29.09,165.58,C4H12Cl2OSi2,"1,3-dichloro-1,1,3,3-tetramethyldisiloxane",2401-73-2,235.65,Yaw
CN(C)P(=O)(F)N(C)C,3,5.655566407719208,2632.2,273.15,38.85,218.43,C4H12FN2OP,dimefox,115-26-4,297.05780838278184,ML
NCCCCN,"1,2",4.796116407719208,1777.2071,212.001,27.5,183.37,C4H12N2,"1,4-butanediamine",110-60-1,300.65,Yaw
CNCCNC,"1,2",4.787136407719209,1640.81,222.704,1.63,143.05,C4H12N2,"N,N'-dimethyl-1,2-ethanediamine",110-70-3,274.78,Yaw
CCNCCN,"1,2",4.789356407719208,1672.6942,220.202,1.63,152.47,C4H12N2,"N-ethyl-1,2-ethanediamine",110-72-5,274.78,Yaw
CC(C)(N)CN,3,5.328826407719209,1785.3967,221.87,25.77,133.24,C4H12N2,"2-methyl-1,2-propanediamine",811-93-8,256.1,Yaw
CCN(N)CC,2,4.561466407719209,1514.6585,228.542,6.57,126.98,C4H12N2,"1,1-diethylhydrazine",616-40-0,239.10852232097668,ML
CCNNCC,"1,2",4.777766407719208,1518.5922,232.295,-4.23,106.92,C4H12N2,"1,2-diethylhydrazine",1615-80-1,238.75305711657674,ML
CC(N)CCN,3,7.076976407719208,2325.8581,215.476,44.17,127.78,C4H12N2,"1,3-butanediamine",590-88-5,274.78,Yaw
CN(C)CCN,"1,2",4.785916407719209,1590.0506,226.735,11.77,127.8,C4H12N2,"N,N-dimethylethylenediamine",108-00-9,291.2,Yaw
CNCCCN,"1,2",4.791966407719209,1711.6645,217.144,39.37,163.99,C4H12N2,3-(methylamino)propylamine,6291-84-5,274.78,Yaw
NCCNCCO,"1,2",5.850196407719208,2508.4014,189.922,134.54,262.11,C4H12N2O,N-aminoethyl ethanolamine,111-41-1,293.7475452731129,ML
CN(C)S(=O)N(C)C,3,4.535886407719208,2186.98,273.15,46.85,243.27,C4H12N2OS,tetramethylsulfurous diamide,3768-60-3,304.15,Yaw
CN(C)S(=O)(=O)N(C)C,3,6.592276407719208,3636.96,326.7,84.85,251.4,C4H12N2O2S,tetramethylsulfamide,3768-63-6,346.15,Yaw
CO[Si](OC)(OC)OC,3,5.475626407719208,2177.1869,276.614,14.4,144.13,C4H12O4Si,tetramethyl silicate,681-84-5,272.15,Yaw
C[Si](C)(C)C,"1,2",3.995776407719209,1061.5124,239.108,-58.47,48.19,C4H12Si,tetramethylsilane,75-76-3,174.07,Yaw
C[Sn](C)(C)C,3,4.241086407719209,1360.4274,242.773,-20.55,102.51,C4H12Sn,tetramethylstannane,594-27-4,218.05,Yaw
NCCNCCN,"1,2",5.552176407719209,2525.8738,250.884,88.94,230.13,C4H13N3,diethylene triamine,111-40-0,234.15,Yaw
FC(=C(Cl)Cl)C(F)(F)C(F)(F)C(F)(F)Cl,3,4.876686407719209,1938.1,273.15,13.66,150.42,C5Cl3F7,"1,1,5-trichloro-2,3,3,4,4,5,5-heptafluoro-1-pentene",16327-67-6,193.60266452321127,ML
ClC1=C(Cl)C(Cl)(Cl)C(Cl)=C1Cl,"1,2",4.208406407719209,1829.1202,195.584,104.8,272.53,C5Cl6,hexachlorocyclopentadiene,77-47-4,283.65,Yaw
Fc1nc(F)c(F)c(F)c1F,3,5.315786407719209,1898.0,273.15,-9.41,105.33,C5F5N,pentafluoropyridine,700-16-3,248.25902647724243,ML
FC1=C(F)C(F)(F)C(F)(F)C1(F)F,"1,2",3.3189064077192088,682.1666,178.69,-47.5,47.35,C5F8,octafluorocyclopentene,559-40-0,203.15,Yaw
FC(F)=C=C(F)C(F)(F)C(F)(F)F,3,4.619286407719208,1363.0,273.15,-63.46,42.49,C5F8,"1,1,3,4,4,5,5,5-octafluoro-1,2-pentadiene",21972-01-0,168.81766597767208,ML
FC(F)(F)C#CN(C(F)(F)F)C(F)(F)F,3,4.400186407719208,1302.0,273.15,-65.86,44.48,C5F9N,"3,3,3-trifluoro-N,N-bis(trifluoromethyl)-1-propynylamine",19451-91-3,198.21071702656727,ML
FC(F)=C(F)C(F)(F)C(F)(F)C(F)(F)F,"1,2",4.526976407719209,1252.0464,247.724,-52.33,48.55,C5F10,"1,1,2,3,3,4,4,5,5,5-decafluoro-1-pentene",376-87-4,153.81838213303504,ML
FN1C(F)(F)C(F)(F)C(F)(F)C(F)(F)C1(F)F,3,3.978086407719209,1062.98,217.593,-36.16,71.49,C5F11N,undecafluoro-piperidine,836-77-1,228.7118520047176,ML
FC(F)(F)C(F)(F)C(F)(F)C(F)(F)C(F)(F)F,"1,2",4.622676407719209,1282.316,247.947,-50.77,48.77,C5F12,perfluoropentane,678-26-2,148.36,Yaw
FC(F)(F)C(F)(F)C(F)(C(F)(F)F)C(F)(F)F,3,3.999296407719209,1007.334,221.746,-50.43,50.63,C5F12,perfluoro-2-methylbutane,594-91-2,169.19381198858358,ML
FC(F)(OC(F)(F)C(F)(F)F)OC(F)(F)C(F)(F)F,3,3.5894664077192084,854.94,197.14,-40.85,62.84,C5F12O2,bis(pentafluoro-ethoxy)difluoro-methane,20822-11-1,232.81627582749266,ML
FC(F)(F)N(C(F)(F)C(F)(F)F)C(F)(F)C(F)(F)F,3,3.934036407719209,1019.99,212.833,-37.42,67.92,C5F13N,perfluorodiethyl-methylamine,758-48-5,165.1737899935409,ML
FC(F)(F)C(F)(N=[SH2])C(F)(F)F,3,4.899506407719208,1907.69,299.534,-18.18,115.32,C5F13NS,"N-[1,2,2,2-tetrafluoro-1-(trifluoromethyl)-ethyl]sulfilimine",37826-44-1,254.73944423655814,ML
FC(F)(F)ON(OC(F)(F)F)C(F)(F)N(OC(F)(F)F)OC(F)(F)F,3,5.352186407719209,1759.0,273.15,-29.96,75.09,C5F14N2O,"1,1-difluoro-N-(tri-fluoromethoxy)-N,N',N'-tris(trifluoromethoxy)methanediamine",17636-88-3,244.1877552907001,ML
FC(F)(F)OC(F)(F)N(N(C(F)(F)F)C(F)(F)F)C(F)(F)F,3,5.374186407719209,1811.0,273.15,-23.53,83.83,C5F14N2O,"1-[difluoro(trifluoromethoxy)methyl]-1,2,2-tris(trifluoro-methyl)hydrazine",17636-89-4,214.8980951922939,ML
FC1(F)C(F)(F)C(F)(F)C(F)(OS(F)(F)(F)(F)F)C1(F)F,3,4.388476407719208,1383.497,227.591,-6.91,110.88,C5F14OS,pentafluoro-[(nonafluorocyclo-pentyl)oxy] sulfur,736-59-4,225.30795568412665,ML
FC(F)(F)p1p(C(F)(F)F)p(C(F)(F)F)p(C(F)(F)F)p1C(F)(F)F,3,4.394496407719209,1742.16,207.28,45.85,218.32,C5F15P5,"1,2,3,4,5-pentakis-(trifluoromethyl)-pentaphospholane",900001-66-3,278.740180839761,ML
O=C(OC(C(F)(F)F)C(F)(F)Cl)C(F)(F)F,3,5.689286407719209,1921.0,273.15,-19.39,83.37,C5HClF8O2,"2,2,2-trifluoro-1-(chloro-difluoromethyl)ethyl trifluoroacetate",52225-55-5,255.99947452712686,ML
FC1C(F)(F)C(F)(F)C(F)(F)C1(F)F,3,4.042546407719208,1039.905,218.613,-43.05,59.32,C5HF9,nonafluoro-cyclopentane,376-65-8,224.66627292062722,ML
FC(F)=C(Br)CN(C(F)(F)F)C(F)(F)F,3,4.754186407719208,1765.0,273.15,-7.14,123.2,C5H2BrF8N,"2-bromo-3,3-difluoro-N,N-bis(trifluoromethyl)-allylamine",19451-93-5,237.59081753444516,ML
CC#CN(C(F)(F)F)C(F)(F)F,3,5.162186407719208,1625.0,273.15,-42.42,61.13,C5H3F6N,"N,N-bis(trifluoromethyl)-1-propynylamine",25237-11-0,201.15406197294377,ML
CC(OS(=O)C(F)(F)F)(C(F)(F)F)C(F)(F)F,3,4.629286407719209,1784.0,273.15,0.89,139.03,C5H3F9O2S,"trifluoromethane-sulfinic acid, 2,2,2-trifluoro-1-methyl-1-(trifluoromethyl)ethyl ester",52225-51-1,272.52469935146036,ML
C#CC#CC,"1,2",5.070176407719209,1502.4179,240.774,-38.5,74.25,C5H4,"1,3-pentadiyne",4911-55-1,234.65,Yaw
Brc1cccnc1,3,4.853406407719208,2090.41,257.71,15.85,201.48,C5H4BrN,3-bromopyridine,626-55-1,245.85,Yaw
Clc1ccccn1,"1,2",4.8738364077192085,2080.2656,256.773,51.2,198.15,C5H4ClN,2-chloropyridine,109-09-1,261.39107687541235,ML
FC(F)(F)C(F)(F)C(F)(F)CCI,3,5.151126407719209,2020.127,273.15,14.13,143.36,C5H4F7I,"1,1,1,2,2,3,3-heptafluoro-5-iodopentane",1513-88-8,231.14889533523,ML
FC(F)(F)CCN(C(F)(F)F)C(F)(F)F,3,4.845286407719208,1622.0,273.15,-32.0,83.78,C5H4F9N,"3,3,3-trifluoro-N,N-bis(trifluoromethyl)-propylamine",19451-89-9,198.10036759401598,ML
O=Cc1ccco1,"1,2",4.358646407719209,1528.8111,189.204,55.82,187.57,C5H4O2,furfural,98-01-1,234.5,Yaw
C=C(OC)N(C(F)(F)F)C(F)(F)F,3,4.8882864077192085,1692.0,273.15,-23.19,95.7,C5H5F6NO,"1-methoxy-N,N-bis(trifluoromethyl)-vinylamine",22130-39-8,233.00744225431495,ML
CCC(=O)[N+]([O-])(C(F)(F)F)C(F)(F)F,3,5.979286407719208,2197.0,273.15,4.85,113.76,C5H5F6NO2,"N,N-bis(trifluoro-methyl)propionamide, N-oxide",22743-66-4,271.9416661622607,ML
CC[Se]C(F)(F)C(F)(F)C(F)(F)F,3,5.126186407719208,1880.0,273.15,-30.15,116.47,C5H5F7Se,ethyl(heptafluoro-propyl) selenide,755-44-2,209.82846814203512,ML
c1ccncc1,"1,2",4.302836407719209,1462.7407,224.598,11.95,140.92,C5H5N,pyridine,110-86-1,231.53,Yaw
C1=CCC=C1,"1,2",4.419126407719209,1333.0595,260.807,-49.21,62.9,C5H6,cyclopentadiene,542-92-7,188.15,Yaw
C#CC(=C)C,"1,2",4.047576407719209,1111.0572,242.35,-54.94,54.21,C5H6,2-methyl-1-butene-3-yne,78-80-8,160.15,Yaw
C=CC#CC,"1,2",4.2342664077192085,1267.3786,239.765,-32.51,82.46,C5H6,1-pentene-3-yne,646-05-9,160.15,Yaw
C#CCC=C,"1,2",4.149236407719209,1175.0108,241.337,-46.48,64.0,C5H6,1-pentene-4-yne,871-28-3,160.15,Yaw
C#C/C=C\C,"1,2",4.6083964077192086,1328.4423,243.666,-38.95,64.75,C5H6,cis-3-penten-1-yne,1574-40-9,160.15,Yaw
C#CC=CC,"1,2",4.707846407719209,1374.9396,241.553,-32.87,70.45,C5H6,trans-3-penten-1-yne,2004-69-5,160.15,Yaw
C#CC1CC1,"1,2",5.150936407719209,1669.676,273.15,-35.7,71.12,C5H6,ethynylcyclopropane,6746-94-7,209.20141320506718,ML
O=C(Cl)CCCC(=O)Cl,3,5.485606407719208,2574.56,252.33,55.85,244.25,C5H6Cl2O2,pentanedioyl dichloride,2873-74-7,242.02784470924178,ML
COC(=O)CNC(=O)C(F)(F)F,3,6.139286407719208,2994.0,273.15,100.16,239.67,C5H6F3NO3,N-(trifluoroacetyl)-glycine methyl ester,383-72-2,332.2886466161854,ML
CC(C)(OS(=O)C(F)(F)F)C(F)(F)F,3,4.7792864077192085,1854.0,273.15,5.22,140.85,C5H6F6O2S,"trifluoromethane-sulfinic acid, 2,2,2-trifluoro-1,1-dimethylethyl ester",52225-49-7,268.52044913735773,ML
N#CCCCC#N,"1,2",4.974266407719209,2587.3076,234.088,143.34,319.56,C5H6N2,glutaronitrile,544-13-8,244.21,Yaw
CCC#CC=O,2,4.681476407719209,1638.7892,220.758,28.97,153.36,C5H6O,2-pentynal,55136-52-2,177.0,Yaw
CC#CCC=O,2,4.232066407719208,1526.5585,220.758,28.97,167.58,C5H6O,3-pentynal,---,177.0,Yaw
C#CCCC=O,2,4.232066407719208,1526.5585,220.758,28.97,167.58,C5H6O,4-pentynal,18498-59-4,177.0,Yaw
C#CC(C)C=O,2,3.865006407719209,1404.9001,223.538,20.97,170.66,C5H6O,2-methyl-3-butynal,---,177.0,Yaw
Cc1ccco1,"1,2",4.642386407719209,1531.6528,266.078,-31.28,86.73,C5H6O,2-methylfuran,534-22-5,178.87,Yaw
Cc1ccoc1,2,4.733456407719209,1409.6679,237.855,-24.73,80.18,C5H6O,3-methylfuran,930-27-8,178.87,Yaw
OCc1ccco1,"1,2",5.325156407719209,2120.7943,227.76,66.55,194.36,C5H6O2,furfuryl alcohol,98-00-0,258.52,Yaw
CCC#CC(=O)O,3,4.8114064077192085,2024.0791,192.679,110.0,256.0,C5H6O2,2-pentynoic acid,5963-77-9,323.15,Yaw
C#CCCC(=O)O,3,4.8114064077192085,2024.0791,192.679,110.0,256.0,C5H6O2,4-pentynoic acid,6089-09-4,330.85,Yaw
O=C1CCCC(=O)O1,"1,2",4.947676407719209,2519.6336,218.256,150.73,323.99,C5H6O3,glutaric anhydride,108-55-4,328.0,Yaw
C=C(CC(=O)O)C(=O)O,"1,2",9.661946407719208,4032.0096,149.308,200.0,281.42,C5H6O4,itaconic acid,97-65-4,438.75,Yaw
Cc1cccs1,"1,2",4.398786407719209,1575.2133,245.452,5.39,138.96,C5H6S,2-methylthiophene,554-14-3,209.79,Yaw
Cc1ccsc1,"1,2",4.329936407719209,1517.919,235.114,9.29,141.64,C5H6S,3-methylthiophene,616-44-4,204.19,Yaw
C=CC(C)=CCl,"1,2",4.143436407719209,1381.2894,226.318,2.97,133.17,C5H7Cl,"1-chloro-2-methyl-1,3-butadiene",35383-51-8,184.54748264450077,ML
C=C(C)C=CCl,2,4.200126407719209,1374.2908,228.07,-2.07,124.39,C5H7Cl,"1-chloro-3-methyl-1,3-butadiene",51034-46-9,201.11403786259822,ML
C=C(C)C(=C)Cl,2,3.8887264077192087,1280.7247,230.21,-8.23,126.77,C5H7Cl,"2-chloro-3-methyl-1,3-butadiene",1809-02-5,203.50204711602467,ML
C#CC(C)(C)Cl,2,2.9426164077192087,1071.3133,234.936,-12.83,170.62,C5H7Cl,3-chloro-3-methyl-1-butyne,1111-97-3,212.15,Yaw
C#CCCCCl,"1,2",3.8024864077192086,1306.6476,230.78,-0.87,142.39,C5H7Cl,5-chloro-1-pentyne,14267-92-6,212.15,Yaw
CCCOC(=O)C(=O)Cl,3,3.0553964077192086,1310.6138,221.89,8.85,253.94,C5H7ClO3,propyl chloroglyoxylate,54166-91-5,261.36491356560356,ML
C=CCOC(=O)CF,3,6.342886407719208,2554.3,273.15,37.45,149.62,C5H7FO2,allyl fluoroacetate,406-23-5,224.82461445361864,ML
Cn1cccc1,"1,2",4.109906407719208,1344.7856,214.356,10.12,138.71,C5H7N,N-methylpyrrole,96-54-8,216.91,Yaw
Cc1ccc[nH]1,"1,2",4.503776407719209,1634.3364,215.032,40.95,173.84,C5H7N,2-methylpyrrole,636-41-9,237.55,Yaw
Cc1cc[nH]c1,"1,2",4.512956407719209,1621.0007,216.338,37.19,168.52,C5H7N,3-methylpyrrole,616-43-3,224.75,Yaw
C=CCCC#N,"1,2",4.3581864077192085,1556.7206,217.144,32.37,166.55,C5H7N,4-pentenenitrile,592-51-8,187.28872615921276,ML
CC=CCC#N,"1,2",4.363756407719209,1576.0383,215.615,36.77,172.31,C5H7N,trans-3-pentenenitrile,16529-66-1,229.92999750210228,ML
CCC=CC#N,2,3.7967864077192086,1379.597,220.619,22.37,174.03,C5H7N,cis-2-pentenenitrile,25899-50-7,202.70542076570973,ML
CCOC(=O)CC#N,"1,2",4.0467664077192085,1420.3183,141.926,97.69,237.26,C5H7NO2,ethyl cyanoacetate,105-56-6,250.65,Yaw
C=CCCN=C=S,3,5.357286407719208,2360.0,273.15,52.9,193.6,C5H7NS,3-butenyl isothiocyanate,3386-97-8,254.60183700222697,ML
C1CC12CC2,"1,2",4.249156407719209,1172.6969,237.034,-45.73,59.99,C5H8,spiropentane,157-40-4,166.11,Yaw
C1=CCCC1,"1,2",4.228896407719208,1212.817,242.943,-44.44,65.83,C5H8,cyclopentene,142-29-0,138.13,Yaw
C=CC(=C)C,"1,2",3.9929864077192088,1066.7476,233.305,-51.69,55.63,C5H8,isoprene,78-79-5,127.27,Yaw
C=C=C(C)C,"1,2",4.147646407719209,1137.2055,235.331,-46.69,60.31,C5H8,"3-methyl-1,2-butadiene",598-25-4,159.53,Yaw
C=C=CCC,"1,2",4.0021664077192085,1125.7468,236.335,-44.98,67.83,C5H8,"1,2-pentadiene",591-95-7,135.89,Yaw
C=CC=CC,"1,2",4.728726407719209,1353.6742,244.416,-39.61,61.31,C5H8,"1,3-pentadiene; (cis+trans)",504-60-9,144.73,Yaw
C=CCC=C,"1,2",3.810176407719209,978.473,230.955,-59.02,47.88,C5H8,"1,4-pentadiene",591-93-5,124.86,Yaw
CC=C=CC,"1,2",4.120336407719209,1169.1432,235.549,-40.73,70.56,C5H8,"2,3-pentadiene",591-96-8,147.5,Yaw
C#CCCC,"1,2",4.074146407719208,1035.9385,214.091,-40.13,60.47,C5H8,1-pentyne,627-19-0,167.45,Yaw
CC#CCC,"1,2",3.955906407719208,1105.6641,223.377,-33.94,79.14,C5H8,2-pentyne,627-21-4,163.83,Yaw
C#CC(C)C,"1,2",4.352026407719209,1184.8846,243.26,-53.16,49.23,C5H8,3-methyl-1-butyne,598-23-2,183.45,Yaw
CC1=CCC1,"1,2",4.516766407719208,1402.4558,273.15,-53.93,59.52,C5H8,1-methylcyclobutene,1489-60-7,149.7200667450877,ML
C=C1CCC1,"1,2",4.026036407719209,1100.5199,231.151,-44.84,64.29,C5H8,methylenecyclobutane,1120-56-5,138.45,Yaw
C=CC1CC1,3,3.301136407719208,1071.8987,273.15,-66.3,84.14,C5H8,vinylcyclopropane,693-86-7,154.3074787879814,ML
Br[C@H]1CCC[C@H]1Br,3,4.085696407719209,1704.719,220.945,64.77,229.48,C5H8Br2,"cis-1,2-dibromocyclopentane",10230-26-9,273.90761643605555,ML
BrCC(CBr)(CBr)CBr,"1,2",4.739646407719208,2256.9498,171.135,163.0,337.35,C5H8Br4,"1,3-dibromo-2,2-bis(bromomethyl)propane",3229-00-3,436.15,Yaw
COC(=O)CC(Cl)CF,3,6.582486407719209,2845.4,273.15,63.05,179.83,C5H8ClFO2,methyl 4-fluoro-3-chlorobutanoate,900000-60-4,252.13510693163457,ML
C=C(CCl)C(C)Cl,3,5.045866407719209,1810.2475,212.974,48.37,168.55,C5H8Cl2,3-chloro-2-(chloromethyl)-1-butene,69295-21-2,262.6912257880632,ML
CC(Cl)=C(C)CCl,3,4.798436407719208,1728.1518,214.364,44.37,169.89,C5H8Cl2,"1,3-dichloro-2-methyl-2-butene",25148-87-2,234.89479397254797,ML
CC(=CCCl)CCl,3,4.9635964077192085,1784.8746,213.808,46.97,169.0,C5H8Cl2,"1,4-dichloro-2-methyl-2-butene",29843-58-1,254.86058225203183,ML
C=C(C)C(C)(Cl)Cl,3,4.9635964077192085,1784.8746,213.808,46.97,169.0,C5H8Cl2,"3,3-dichloro-2-methyl-1-butene",42101-38-2,242.2765214094462,ML
CC(Cl)=CCCCl,3,4.846346407719208,1744.0596,214.086,45.17,169.62,C5H8Cl2,"2,5-dichloro-2-pentene",20177-02-0,211.99135533001768,ML
ClCC(CCl)(CCl)CCl,2,4.4923364077192085,1835.6896,197.17,90.86,240.81,C5H8Cl4,"2,2-bis(chloromethyl)-1,3-dichloropropane",3228-99-7,370.15,Yaw
ClCCCCC(Cl)(Cl)Cl,2,4.4923364077192085,1835.6896,197.17,90.86,240.81,C5H8Cl4,"1,1,1,5-tetrachloropentane",2467-10-9,370.15,Yaw
O=C(OCCF)OCCF,3,7.031286407719209,3214.0,273.15,87.48,204.4,C5H8F2O3,"2-fluoroethanol, carbonate(2:1)",406-15-5,272.24819378124454,ML
[GeH3]C1C=CC=C1,3,4.934676407719208,1853.2,273.15,-1.24,126.79,C5H8Ge,"2,4-cyclopentadien-1-ylgermane",35682-28-1,188.34250003332855,ML
ICC(CI)(CI)CI,3,4.023306407719208,2280.4299,143.794,242.45,468.85,C5H8I4,"2,2-bis(iodomethyl)-1,3-diiodopropane",1522-88-9,500.15,Yaw