smiles,code,A [log10(atm)],B [C],C [C],TMIN [C],TMAX [C],FORMULA,NAME,CAS No,mp [K],mp_type
CCOc1ccccc1Cl,3,4.897696407719208,2303.2573,252.51,44.85,248.56,C8H9ClO,1-chloro-2-ethoxybenzene,614-72-2,272.4510264984728,ML
CCOc1ccc(Cl)cc1,3,4.440636407719208,1988.3529,230.0,84.54,250.32,C8H9ClO,1-chloro-4-ethoxybenzene,622-61-7,294.15,Yaw
OCC(O)c1ccc(Cl)cc1,3,5.9602864077192095,2395.239,157.13,136.85,266.11,C8H9ClO2,ethyleneglycol 4-chlorophenyl ether,7477-64-7,360.03236031005264,ML
CCOC(=O)C(C(C)=O)C(=O)C(Cl)(Cl)Cl,3,2.946666407719209,1942.2295,273.15,100.85,460.97,C8H9Cl3O4,"ethyl 2-acetyl-4,4,4-trichloro-3-oxobutanoate",900001-90-3,315.4892514664792,ML
Cc1cccc(F)c1C,"1,2",4.311776407719209,1571.2714,214.364,39.37,177.4,C8H9F,3-fluoro-o-xylene,443-82-3,215.3374307049029,ML
Cc1cccc(C)c1F,2,4.351906407719208,1573.3202,215.059,37.37,173.33,C8H9F,2-fluoro-m-xylene,443-88-9,215.07248053289513,ML
Cc1ccc(F)cc1C,2,4.413956407719208,1593.9123,214.642,38.57,172.9,C8H9F,4-fluoro-o-xylene,452-64-2,222.3690871374175,ML
CCc1ccc(I)cc1,2,3.4284264077192086,1473.4845,197.962,79.57,273.19,C8H9I,1-ethyl-4-iodobenzene,25309-64-2,256.15,Yaw
Cc1cccc(I)c1C,"1,2",4.057706407719208,1710.1283,192.402,95.57,262.82,C8H9I,"1-iodo-2,3-dimethylbenzene",31599-60-7,270.25,Yaw
Cc1ccc(I)c(C)c1,2,4.036946407719209,1710.3294,191.846,97.17,265.96,C8H9I,"1-iodo-2,4-dimethylbenzene",4214-28-2,270.25,Yaw
Cc1cc(C)cc(I)c1,2,4.0213564077192085,1704.2828,191.985,96.77,266.12,C8H9I,"1-iodo-3,5-dimethylbenzene",22445-41-6,270.25,Yaw
Cc1cccc(C)c1I,"1,2",4.058336407719208,1711.8619,192.263,95.97,263.35,C8H9I,"2-iodo-1,3-dimethylbenzene",608-28-6,284.35,Yaw
Cc1ccc(C)c(I)c1,2,3.9147464077192087,1662.911,192.958,93.97,267.21,C8H9I,"2-iodo-1,4-dimethylbenzene",1122-42-5,270.25,Yaw
Cc1ccc(I)cc1C,"1,2",4.060876407719209,1718.797,191.707,97.57,265.44,C8H9I,"4-iodo-1,2-dimethylbenzene",31599-61-8,270.25,Yaw
ICCc1ccccc1,2,3.905436407719209,1659.2963,193.045,93.72,267.31,C8H9I,(2-iodoethyl)benzene,17376-04-4,270.25,Yaw
CC(=O)Nc1ccccc1,3,7.601846407719208,3254.6757,179.279,163.94,266.52,C8H9NO,acetanilide,103-84-4,387.65,Yaw
Cc1cccc([N+](=O)[O-])c1C,"1,2",4.323736407719209,1878.205,189.344,113.37,277.56,C8H9NO2,"1,2-dimethyl-3-nitrobenzene",83-41-0,288.15,Yaw
Cc1ccc([N+](=O)[O-])cc1C,2,4.794806407719209,2059.1384,186.286,122.17,271.93,C8H9NO2,"1,2-dimethyl-4-nitrobenzene",99-51-4,303.65,Yaw
Cc1cccc(C)c1[N+](=O)[O-],"1,2",4.514166407719209,1889.1188,193.236,102.17,255.15,C8H9NO2,"1,3-dimethyl-2-nitrobenzene",81-20-9,288.15,Yaw
Cc1cc(C)cc([N+](=O)[O-])c1,"1,2",4.517196407719209,2050.3218,179.892,140.57,306.41,C8H9NO2,"1,3-dimethyl-5-nitrobenzene",99-12-7,348.15,Yaw
Cc1ccc(C)c([N+](=O)[O-])c1,2,4.403876407719209,1904.1055,189.205,113.77,274.89,C8H9NO2,"1,4-dimethyl-2-nitrobenzene",89-58-7,248.15,Yaw
Cc1ccc([N+](=O)[O-])c(C)c1,"1,2",4.6068264077192085,1987.6068,187.398,118.97,274.21,C8H9NO2,"2,4-dimethyl-1-nitrobenzene",89-87-2,282.15,Yaw
CCc1ccccc1[N+](=O)[O-],2,4.138486407719209,1798.5614,191.429,107.37,277.26,C8H9NO2,1-ethyl-2-nitrobenzene,612-22-6,260.85,Yaw
CCc1cccc([N+](=O)[O-])c1,"1,2",4.496016407719209,1938.68,188.649,115.37,273.49,C8H9NO2,1-ethyl-3-nitrobenzene,7369-50-8,235.25,Yaw
CCc1ccc([N+](=O)[O-])cc1,"1,2",5.1521764077192085,2462.9112,232.483,117.71,275.21,C8H9NO2,1-ethyl-4-nitrobenzene,100-12-9,260.85,Yaw
Cc1ccc(C[N+](=O)[O-])cc1,2,4.5934064077192085,1979.3274,187.741,117.98,273.39,C8H9NO2,1-methyl-4-(nitromethyl)benzene,29559-27-1,284.65,Yaw
O=[N+]([O-])CCc1ccccc1,2,4.755256407719209,2043.4733,186.564,121.37,272.21,C8H9NO2,(2-nitroethyl)benzene,6125-24-2,250.15,Yaw
Cc1ccc(C)c([N+](=O)[O-])c1O,3,2.182016407719209,1036.2249,189.166,65.88,361.73,C8H9NO3,"3,6-dimethyl-2-nitrophenol",71608-10-1,307.65,Yaw
CCc1ccccc1,"1,2",4.275286407719209,1559.5452,228.582,24.75,163.83,C8H10,ethylbenzene,100-41-4,178.2,Yaw
Cc1ccccc1C,"1,2",4.268326407719209,1566.5881,222.596,32.17,172.28,C8H10,o-xylene,95-47-6,247.98,Yaw
Cc1cccc(C)c1,"1,2",4.300336407719208,1573.0243,226.671,27.82,166.65,C8H10,m-xylene,108-38-3,225.3,Yaw
Cc1ccc(C)cc1,"1,2",4.273896407719208,1553.9461,225.23,13.26,165.91,C8H10,p-xylene,106-42-3,286.41,Yaw
C1=CC=CCCC=C1,"1,2",4.1961664077192085,1515.509,215.615,33.77,173.46,C8H10,"1,3,5-cyclooctatriene",1871-52-9,189.9,Yaw
C1=CCC=CCC=C1,3,4.143516407719209,1493.6926,216.383,31.56,172.35,C8H10,"1,3,6-cyclooctatriene",3725-30-2,211.15,Yaw
C=C(C)C#CC(=C)C,2,3.567636407719209,1305.6684,221.87,17.77,177.83,C8H10,"2,5-dimethyl-1,5-hexadien-3-yne",3725-05-1,215.83676505212506,ML
CC#CCCC#CC,2,4.757966407719208,1738.983,216.383,45.56,173.79,C8H10,"2,6-octadiyne",764-73-8,300.15,Yaw
CCC#CC#CCC,"1,2",5.045736407719208,1889.4341,210.611,62.17,187.61,C8H10,"3,5-octadiyne",16387-70-5,300.15,Yaw
C#CCCCCC#C,"1,2",5.080146407719209,1797.0794,218.395,27.0,157.63,C8H10,"1,7-octadiyne",871-84-1,300.15,Yaw
ClC(Cl)CO[SiH2]c1ccccc1,3,4.475456407719209,1927.38,208.4,94.83,253.31,C8H10Cl2OSi,dichloroethoxyphenylsilane,18236-80-1,277.67192557893424,ML
CC[Si](Cl)(Cl)c1ccccc1,3,4.437716407719209,2032.21,230.44,91.19,260.82,C8H10Cl2Si,ethylphenyldichlorosilane,1125-27-5,260.2016130903714,ML
COC(=O)[C@@H]1CCCN1C(=O)C(F)(F)F,3,5.669286407719209,3026.0,273.15,127.64,290.53,C8H10F3NO3,N-trifluoroacetyl-L-proline methyl ester,715-58-2,294.9367419345728,ML
CN(C)c1ccccc1[N+](=O)[O-],3,3.048346407719209,1526.0018,186.217,123.37,369.24,C8H10N2O2,"N,N-dimethyl-2-nitroaniline",610-17-3,253.15,Yaw
CN(C)c1cccc([N+](=O)[O-])c1,"1,2",4.568156407719209,2101.7163,177.529,148.37,315.01,C8H10N2O2,"N,N-dimethyl-3-nitroaniline",619-31-8,333.65,Yaw
Cc1ccc([N+](=O)[O-])c(N)c1C,3,3.048346407719209,1526.0018,186.217,123.37,369.24,C8H10N2O2,"2,3-dimethyl-6-nitroaniline",59146-96-2,392.65,Yaw
CCNc1ccccc1[N+](=O)[O-],3,3.048346407719209,1526.0018,186.217,123.37,369.24,C8H10N2O2,N-ethyl-2-nitroaniline,10112-15-9,366.05,Yaw
CCOc1ccccc1,"1,2",4.411886407719209,1703.8026,215.935,54.82,198.53,C8H10O,phenetole,103-73-1,243.63,Yaw
OCCc1ccccc1,"1,2",5.405166407719209,2472.0553,239.1,100.19,245.22,C8H10O,2-phenylethanol,60-12-8,246.15,Yaw
CCc1ccccc1O,"1,2",4.678236407719209,1890.276,199.208,88.99,232.64,C8H10O,o-ethylphenol,90-00-6,269.84,Yaw
CCc1cccc(O)c1,"1,2",4.800986407719209,1974.1351,195.344,100.11,243.36,C8H10O,m-ethylphenol,620-17-7,269.15,Yaw
CCc1ccc(O)cc1,"1,2",4.742276407719209,1955.3015,195.463,99.76,244.8,C8H10O,p-ethylphenol,123-07-9,318.23,Yaw
Cc1cccc(O)c1C,"1,2",4.698946407719209,1938.8359,195.761,72.56,245.09,C8H10O,"2,3-xylenol",526-75-0,345.71,Yaw
Cc1ccc(O)c(C)c1,"1,2",4.699226407719209,1918.5153,197.412,94.15,238.79,C8H10O,"2,4-xylenol",105-67-9,297.68,Yaw
Cc1ccc(C)c(O)c1,"1,2",4.707366407719209,1921.5755,197.356,74.84,238.74,C8H10O,"2,5-xylenol",95-87-4,347.99,Yaw
Cc1cccc(C)c1O,"1,2",4.6992864077192085,1884.4949,200.167,86.23,228.3,C8H10O,"2,6-xylenol",576-26-1,318.76,Yaw
Cc1ccc(O)cc1C,"1,2",4.705616407719209,1975.4566,192.958,106.97,255.54,C8H10O,"3,4-xylenol",95-65-8,338.25,Yaw
Cc1cc(C)cc(O)c1,"1,2",4.733296407719209,1965.5971,194.421,102.76,249.05,C8H10O,"3,5-xylenol",108-68-9,336.59,Yaw
COc1cccc(OC)c1,"1,2",2.709176407719209,832.9944,89.972,91.51,255.94,C8H10O2,"1,3-dimethoxybenzene",151-10-0,221.15,Yaw
OCCOc1ccccc1,"1,2",4.751926407719209,2074.887,191.642,121.18,274.53,C8H10O2,2-phenoxyethanol,122-99-6,287.15,Yaw
CS(=O)(=O)Cc1ccccc1,3,5.579286407719209,3392.0,273.15,181.54,369.49,C8H10O2S,benzyl methyl sulfone,3112-90-1,383.25593140438485,ML
CCc1ccccc1S,2,4.220666407719208,1736.2018,197.684,86.87,245.27,C8H10S,o-ethylthiophenol,4500-58-7,243.15,Yaw
CCc1cccc(S)c1,2,4.255256407719209,1749.2473,197.406,87.67,244.97,C8H10S,m-ethylthiophenol,62154-77-2,243.15,Yaw
CCc1ccc(S)cc1,2,4.255256407719209,1749.2473,197.406,87.67,244.97,C8H10S,p-ethylthiophenol,4946-13-8,243.15,Yaw
Cc1cccc(S)c1C,2,4.4202864077192086,1810.5769,195.933,91.41,243.61,C8H10S,"2,3-dimethylthiophenol",18800-51-6,243.15,Yaw
Cc1ccc(S)c(C)c1,2,4.152776407719209,1710.5858,198.24,85.27,245.87,C8H10S,"2,4-dimethylthiophenol",13616-82-5,243.15,Yaw
Cc1ccc(C)c(S)c1,2,4.054066407719208,1673.3055,199.074,82.87,246.78,C8H10S,"2,5-dimethylthiophenol",4001-61-0,243.15,Yaw
Cc1cccc(C)c1S,2,4.4202864077192086,1810.5769,195.933,91.41,243.61,C8H10S,"2,6-dimethylthiophenol",118-72-9,243.15,Yaw
Cc1ccc(S)cc1C,2,4.4202864077192086,1810.5769,195.933,91.41,243.61,C8H10S,"3,4-dimethylthiophenol",18800-53-8,243.15,Yaw
Cc1cc(C)cc(S)c1,2,4.4202864077192086,1810.5769,195.933,91.41,243.61,C8H10S,"3,5-dimethylthiophenol",38360-81-5,243.15,Yaw
CCSc1ccccc1,"1,2",4.264686407719209,1727.6263,200.05,81.07,235.82,C8H10S,(1-thiapropyl)-benzene,622-38-8,229.33443349831896,ML
CSc1ccccc1C,2,4.489626407719209,1802.2839,197.759,85.15,232.52,C8H10S,2-methyl-(1-thiaethyl)-benzene,---,218.81895514309863,ML
CSc1cccc(C)c1,2,4.489626407719209,1802.2839,197.759,85.15,232.52,C8H10S,3-methyl-(1-thiaethyl)-benzene,4886-77-5,222.91218319195113,ML
CSc1ccc(C)cc1,2,4.752086407719209,1907.6925,197.77,89.84,230.82,C8H10S,4-methyl-(1-thiaethyl)-benzene,623-13-2,251.36267730076682,ML
CSCc1ccccc1,"1,2",4.879596407719209,1923.7023,197.684,86.87,222.47,C8H10S,[(methylthio)methyl]benzene,766-92-7,243.15,Yaw
SCCc1ccccc1,2,4.491246407719209,1838.1442,195.599,92.87,243.08,C8H10S,2-phenylethanethiol,4410-99-5,243.15,Yaw
C[Si](C)(Cl)c1ccccc1,3,4.2415164077192085,1703.69,206.67,71.6,225.69,C8H11ClSi,chlorodimethylphenylsilane,768-33-2,272.03082189319724,ML
C[Si](C)(F)c1ccccc1,3,3.990566407719209,1402.79,189.14,29.85,191.07,C8H11FSi,fluorodimethylphenylsilane,454-57-9,235.3138942777806,ML
O=C(OC1CCCCC1)C(F)(F)F,3,4.853686407719208,1905.8,244.8,38.19,173.81,C8H11F3O2,"trifluoroacetic acid, cyclohexyl ester",1549-45-7,261.74262026563997,ML
CN(C)c1ccccc1,"1,2",4.550386407719208,1915.1051,228.017,69.77,222.66,C8H11N,"N,N-dimethylaniline",121-69-7,275.65,Yaw
CCc1ccccc1N,"1,2",4.4211564077192085,1801.0602,197.823,87.97,239.31,C8H11N,o-ethylaniline,578-54-1,226.55,Yaw
CNc1ccccc1C,"1,2",4.419546407719209,1794.0224,198.379,86.37,237.22,C8H11N,"N,2-dimethylaniline",611-21-2,263.07,Yaw
CNc1cccc(C)c1,"1,2",4.418736407719209,1790.5037,198.657,85.57,236.17,C8H11N,"N,3-dimethylaniline",696-44-6,263.07,Yaw
CNc1ccc(C)cc1,"1,2",4.421556407719208,1802.8196,197.684,88.37,239.84,C8H11N,"N,4-dimethylaniline",623-08-5,263.07,Yaw
Cc1cccc(N)c1C,"1,2",4.430596407719209,1843.2934,194.487,97.57,251.88,C8H11N,"2,3-dimethylaniline",87-59-2,263.07,Yaw
Cc1ccc(N)c(C)c1,"1,2",4.284806407719208,1776.5751,196.572,91.57,249.38,C8H11N,"2,4-dimethylaniline",95-68-1,258.85,Yaw
Cc1ccc(C)c(N)c1,"1,2",4.284806407719208,1776.5751,196.572,91.57,249.38,C8H11N,"2,5-dimethylaniline",95-78-3,288.65,Yaw
Cc1cccc(C)c1N,"1,2",4.432756407719209,1822.5016,196.294,92.37,244.81,C8H11N,"2,6-dimethylaniline",87-62-7,284.35,Yaw
Cc1ccc(N)cc1C,"1,2",4.5075164077192085,1887.4348,192.68,102.77,256.02,C8H11N,"3,4-dimethylaniline",95-64-7,324.15,Yaw
Cc1cc(C)cc(N)c1,"1,2",4.545496407719209,1873.497,194.765,96.77,246.63,C8H11N,"3,5-dimethylaniline",108-69-0,282.95,Yaw
CCc1cccc(N)c1,"1,2",4.498186407719208,1838.0608,196.572,91.57,241.36,C8H11N,m-ethylaniline,587-02-0,209.15,Yaw
CCc1ccc(N)cc1,"1,2",4.489446407719209,1847.1804,195.599,94.37,245.42,C8H11N,p-ethylaniline,589-16-2,270.75,Yaw
CCNc1ccccc1,"1,2",4.315426407719209,1749.8192,199.63,82.77,236.26,C8H11N,N-ethylaniline,103-69-5,209.65,Yaw
Cc1cc(C)nc(C)c1,"1,2",4.378146407719209,1661.5113,208.651,56.81,198.87,C8H11N,"2,4,6-trimethylpyridine",108-75-8,228.95,Yaw
CCc1cc(C)ccn1,2,4.142506407719209,1609.806,207.692,59.57,211.37,C8H11N,2-ethyl-4-methylpyridine,2150-18-7,216.17,Yaw
CCc1cccc(C)n1,2,3.7036464077192086,1453.1612,211.445,48.77,215.63,C8H11N,2-ethyl-6-methylpyridine,1122-69-6,216.17,Yaw
CCc1cnccc1C,2,5.1518464077192085,1967.6705,201.02,78.77,204.62,C8H11N,3-ethyl-4-methylpyridine,529-21-5,216.17,Yaw
CCc1ccnc(C)c1,"1,2",4.359526407719208,1684.0945,206.302,63.57,208.65,C8H11N,4-ethyl-2-methylpyridine,536-88-9,216.17,Yaw
CC(C)c1ccccn1,"1,2",4.377726407719209,1626.2806,211.64,48.21,187.28,C8H11N,2-isopropylpyridine,644-98-4,132.15,Yaw
CC(C)c1cccnc1,2,4.269336407719209,1654.9398,206.719,62.37,210.32,C8H11N,3-isopropylpyridine,6304-18-3,227.35,Yaw
CC(C)c1ccncc1,"1,2",4.593736407719208,1743.9231,206.58,62.77,199.67,C8H11N,4-isopropylpyridine,696-30-0,218.25,Yaw
CCCc1ccncc1,"1,2",4.400666407719209,1714.8721,204.634,68.37,213.66,C8H11N,4-propylpyridine,1122-81-2,216.17,Yaw
CCCc1ccccn1,"1,2",4.271176407719208,1621.7154,209.638,53.97,198.84,C8H11N,2-propylpyridine,622-39-9,274.15,Yaw
Cc1ccnc(C)c1C,2,4.888406407719208,1874.5285,202.549,74.37,206.08,C8H11N,"2,3,4-trimethylpyridine",2233-29-6,216.17,Yaw
Cc1cnc(C)c(C)c1,2,4.521506407719208,1744.5192,204.912,67.57,208.43,C8H11N,"2,3,5-trimethylpyridine",695-98-7,216.17,Yaw
Cc1ccc(C)c(C)n1,2,4.058866407719209,1580.0109,208.36,57.65,212.1,C8H11N,"2,3,6-trimethylpyridine",1462-84-6,216.17,Yaw
Cc1cc(C)c(C)cn1,"1,2",4.5809964077192085,1774.2207,203.8,70.77,210.74,C8H11N,"2,4,5-trimethylpyridine",1122-39-0,216.17,Yaw
NCCc1ccccc1,"1,2",4.333126407719209,1727.6564,201.159,76.87,227.32,C8H11N,benzeneethanamine,64-04-0,292.86,Yaw
Cc1ccccc1CN,"1,2",4.604496407719209,1831.8807,198.796,83.67,226.88,C8H11N,2-methylbenzenemethanamine,89-93-0,243.15,Yaw
Cc1cccc(CN)c1,"1,2",4.338796407719209,1748.7125,199.491,81.67,233.6,C8H11N,3-methylbenzenemethanamine,100-81-2,292.86,Yaw
Cc1ccc(CN)cc1,"1,2",4.330726407719209,1718.8843,201.854,74.87,224.7,C8H11N,4-methylbenzenemethanamine,104-84-7,285.65,Yaw
CNCc1ccccc1,"1,2",4.106346407719209,1611.4771,205.885,63.27,217.59,C8H11N,N-methylbenzenemethanamine,103-67-3,292.86,Yaw
CC(N)c1ccccc1,"1,2",4.397086407719208,1711.0315,204.078,32.0,213.65,C8H11N,"alpha-methylbenzylamine, ()",618-36-0,305.15,Yaw
CCc1ccc(C)nc1,"1,2",4.394766407719208,1691.3118,206.497,63.01,206.65,C8H11N,5-ethyl-2-picoline,104-90-5,202.85,Yaw
CCOc1ccc(N)cc1,3,4.740516407719209,2127.3914,196.735,124.56,282.46,C8H11NO,p-phenetidine,156-43-4,277.0,Yaw
CCOc1ccccc1N,"1,2",5.5171564077192095,2697.3698,256.356,108.25,260.77,C8H11NO,2-ethoxyaniline,94-70-2,298.5776088771009,ML
C1=CCCC=CCC1,"1,2",4.282046407719209,1599.8466,224.067,35.53,177.8,C8H12,"1,5-cyclooctadiene",111-78-4,203.8,Yaw
C1=CCCCC=CC1,3,3.990236407719209,1450.8793,215.754,31.37,177.52,C8H12,"1,4-cyclooctadiene",1073-07-0,220.15,Yaw
C=CC1CC=CCC1,3,3.9242464077192087,1438.9827,228.837,19.05,168.32,C8H12,vinylcyclohexene,100-40-3,164.0,Yaw
CC1=CCCC(C)=C1,"1,2",4.167486407719209,1484.6485,218.395,27.07,165.59,C8H12,"1,3-dimethyl-1,3-cyclohexadiene",4573-05-1,201.62827244972604,ML
CC1=CC=C(C)CC1,"1,2",4.2570464077192085,1509.8366,218.117,27.87,163.54,C8H12,"1,4-dimethyl-1,3-cyclohexadiene",26120-52-5,214.25080294199327,ML
CC1=CC=CC(C)C1,2,4.102366407719209,1448.3622,220.202,21.87,160.81,C8H12,"1,5-dimethyl-1,3-cyclohexadiene",1453-17-4,201.73208253200218,ML
CC1=CC=CCC1C,2,4.033096407719208,1423.9051,220.202,20.57,161.33,C8H12,"1,6-dimethyl-1,3-cyclohexadiene",---,202.493019014231,ML
CC1=CCC(C)C=C1,2,4.026626407719209,1423.8596,220.758,20.27,161.42,C8H12,"2,5-dimethyl-1,3-cyclohexadiene",2050-33-1,201.24200692498061,ML
CC1=CC(C)CC=C1,2,4.180326407719209,1473.5616,219.646,23.47,160.21,C8H12,"2,6-dimethyl-1,3-cyclohexadiene",2050-32-0,195.53315024806602,ML
C=C(C)C=CC(=C)C,"1,2",5.678116407719209,1932.4129,215.476,40.17,143.9,C8H12,"2,5-dimethyl-1,3,5-hexatriene",4916-63-6,264.15,Yaw
C=C[C@@H]1CC[C@H]1C=C,3,2.9776264077192085,1223.8119,273.15,-21.26,184.08,C8H12,"trans-1,2-divinylcyclobutane",6553-48-6,173.82787391899106,ML
C/C=C/C=C/C=C/C,2,5.367626407719209,1867.4644,215.059,42.58,153.52,C8H12,"trans,trans,trans-2,4,6-octatriene",15192-80-0,325.15,Yaw
C=CC#CCCCC,"1,2",4.668276407719208,1646.3258,218.812,32.57,158.16,C8H12,1-octen-3-yne,17679-92-4,189.16874088476547,ML
C1=CCCCCC=C1,3,3.919546407719209,1427.3532,216.31,29.77,178.15,C8H12,"1,3-cyclooctadiene",1700-10-3,220.25,Yaw
C1=C\CCCC/C=C/1,3,3.693846407719208,1355.0246,218.979,24.09,180.4,C8H12,"(Z,E)-1,3-cyclooctadiene",3806-60-8,213.76,Yaw
O=C(O)CCl.O=C(O)CCl.OCCOCCO,3,5.022746407719208,3114.3235,253.79,147.85,405.79,C8H12Cl2O5,diethyleneglycol bis(chloroethanoate),900000-77-3,398.2178223616504,ML
CCCCCC#CC=O,"1,2",4.957326407719209,1921.847,204.078,76.97,208.66,C8H12O,2-octynal,1846-68-0,281.65,Yaw
CCCCC#CCC=O,2,3.670346407719209,1560.1439,204.078,76.97,258.97,C8H12O,3-octynal,---,281.65,Yaw
CCCC#CCCC=O,2,3.670346407719209,1560.1439,204.078,76.97,258.97,C8H12O,4-octynal,---,281.65,Yaw
CCC#CCCCC=O,2,3.670346407719209,1560.1439,204.078,76.97,258.97,C8H12O,5-octynal,---,281.65,Yaw
CC#CCCCCC=O,2,3.670346407719209,1560.1439,204.078,76.97,258.97,C8H12O,6-octynal,---,281.65,Yaw
C#CCCCCCC=O,2,3.670346407719209,1560.1439,204.078,76.97,258.97,C8H12O,7-octynal,---,281.65,Yaw
C#CCCCC(C)C=O,2,3.412606407719209,1460.0762,206.858,68.97,262.38,C8H12O,2-methyl-6-heptynal,---,281.65,Yaw
C#CCCC(C)CC=O,2,3.412606407719209,1460.0762,206.858,68.97,262.38,C8H12O,3-methyl-6-heptynal,---,281.65,Yaw
C#CCC(C)CCC=O,2,3.412606407719209,1460.0762,206.858,68.97,262.38,C8H12O,4-methyl-6-heptynal,---,281.65,Yaw
C#CC(C)CCCC=O,2,3.412606407719209,1460.0762,206.858,68.97,262.38,C8H12O,5-methyl-6-heptynal,---,281.65,Yaw
CCCC(C)C#CC=O,2,3.412606407719209,1460.0762,206.858,68.97,262.38,C8H12O,4-methyl-2-heptynal,---,281.65,Yaw
CCC(C)CC#CC=O,2,3.412606407719209,1460.0762,206.858,68.97,262.38,C8H12O,5-methyl-2-heptynal,---,281.65,Yaw
CC(C)CCC#CC=O,2,3.412606407719209,1460.0762,206.858,68.97,262.38,C8H12O,6-methyl-2-heptynal,---,281.65,Yaw
CC(C)(C)c1ccco1,"1,2",4.490156407719208,1537.4006,222.843,18.47,144.15,C8H12O,2-tert-butylfuran,7040-43-9,219.83099105153235,ML
CCCCCC#CC(=O)O,"1,2",4.815866407719208,2124.3388,184.813,132.0,286.0,C8H12O2,2-octynoic acid,5663-96-7,275.15,Yaw
CCCCC#CCC(=O)O,3,4.820746407719208,2246.0104,175.267,160.0,322.0,C8H12O2,3-octynoic acid,57074-96-1,291.15,Yaw
CCCC#CCCC(=O)O,3,4.820746407719208,2246.0104,175.267,160.0,322.0,C8H12O2,4-octynoic acid,---,284.9,Yaw
CCC#CCCCC(=O)O,3,4.820746407719208,2246.0104,175.267,160.0,322.0,C8H12O2,5-octynoic acid,76469-08-4,281.15,Yaw
CC#CCCCCC(=O)O,3,4.820746407719208,2246.0104,175.267,160.0,322.0,C8H12O2,6-octynoic acid,---,284.9,Yaw
C#CCCCCCC(=O)O,3,4.820746407719208,2246.0104,175.267,160.0,322.0,C8H12O2,7-octynoic acid,10297-09-3,292.15,Yaw
CCCC(C)C#CC(=O)O,3,4.820746407719208,2246.0104,175.267,160.0,322.0,C8H12O2,4-methyl-2-heptynoic acid,---,284.9,Yaw
CCC(C)CC#CC(=O)O,3,4.820746407719208,2246.0104,175.267,160.0,322.0,C8H12O2,5-methyl-2-heptynoic acid,---,284.9,Yaw
CC(C)CCC#CC(=O)O,3,4.820746407719208,2246.0104,175.267,160.0,322.0,C8H12O2,6-methyl-2-heptynoic acid,---,284.9,Yaw
CCCC#CC(C)C(=O)O,3,4.820746407719208,2246.0104,175.267,160.0,322.0,C8H12O2,2-methyl-3-heptynoic acid,---,284.9,Yaw
CCC(C)C#CCC(=O)O,3,4.820746407719208,2246.0104,175.267,160.0,322.0,C8H12O2,5-methyl-3-heptynoic acid,---,284.9,Yaw
CC(C)CC#CCC(=O)O,3,4.820746407719208,2246.0104,175.267,160.0,322.0,C8H12O2,6-methyl-3-heptynoic acid,---,284.9,Yaw
CCC#CCC(C)C(=O)O,3,4.820746407719208,2246.0104,175.267,160.0,322.0,C8H12O2,2-methyl-4-heptynoic acid,---,284.9,Yaw
CCC#CC(C)CC(=O)O,3,4.820746407719208,2246.0104,175.267,160.0,322.0,C8H12O2,3-methyl-4-heptynoic acid,---,284.9,Yaw
CC(C)C#CCCC(=O)O,3,4.820746407719208,2246.0104,175.267,160.0,322.0,C8H12O2,6-methyl-4-heptynoic acid,---,284.9,Yaw
CCC(C#CC(=O)O)CC,3,4.820746407719208,2246.0104,175.267,160.0,322.0,C8H12O2,4-ethyl-2-hexynoic acid,---,284.9,Yaw
CCOC(=O)C=CC(=O)OCC,"1,2",4.963476407719209,2272.6651,232.878,99.17,254.56,C8H12O4,diethyl maleate,141-05-9,264.35,Yaw
CCOC(=O)CSCC(=O)OCC,3,2.748986407719209,936.929,65.343,111.85,317.4,C8H12O4S,"thiodiacetic acid, diethyl ester",925-47-3,290.13171855535285,ML
CCCCc1cccs1,2,4.6118464077192085,1786.6335,205.607,69.57,208.85,C8H12S,2-butylthiophene,1455-20-5,216.25,Yaw
CCCCc1ccsc1,2,4.632736407719209,1794.0812,205.468,69.97,208.71,C8H12S,3-butylthiophene,34722-01-5,216.25,Yaw
CC(C)Cc1cccs1,2,4.201556407719209,1633.5254,206.997,61.57,211.8,C8H12S,2-isobutylthiophene,---,216.25,Yaw
CC(C)Cc1ccsc1,2,4.219676407719208,1639.9847,206.858,61.97,211.65,C8H12S,3-isobutylthiophene,---,216.25,Yaw