smiles,code,A [log10(atm)],B [C],C [C],TMIN [C],TMAX [C],FORMULA,NAME,CAS No,mp [K],mp_type
CC(O)CNCC(C)O,"1,2",5.972196407719208,2601.5595,186.912,144.37,271.82,C6H15NO2,diisopropanolamine,110-97-4,318.15,Yaw
CN(C)SC(C)(C)C,3,3.536426407719208,1480.0,273.15,0.05,184.29,C6H15NS,"N,N-dimethyl-S-tert-butylthio-hydroxylamine",900000-21-7,224.49344094224008,ML
NCCN1CCNCC1,"1,2",4.703456407719209,1984.1239,201.794,99.55,248.89,C6H15N3,N-aminoethyl piperazine,140-31-8,254.15,Yaw
CCSCCSP(=S)(OC)OC,3,10.422576407719207,3980.8,271.94,51.61,121.36,C6H15O2PS3,thiometon,640-15-3,298.15,Yaw
CCSCCSP(=O)(OC)OC,3,6.482826407719209,3410.0,246.43,161.29,305.19,C6H15O3PS2,demeton s methyl,919-86-8,279.0548259381127,ML
CCSCCOP(=S)(OC)OC,3,4.660136407719208,2428.6,216.42,154.87,340.71,C6H15O3PS2,"O,O-dimethyl O-[2-(ethylthio)ethyl]-thiophosphate",867-27-6,263.08173449699706,ML
CCOP(=O)(OCC)OCC,3,4.989416407719209,2317.272,249.437,87.85,244.82,C6H15O4P,triethyl phosphate,78-40-0,216.65,Yaw
CC(C)NP(=O)(F)NC(C)C,3,7.608176407719208,3033.0,273.15,46.48,141.92,C6H16FN2OP,mipafox,371-86-8,338.15,Yaw
NCCCCCCN,"1,2",4.613946407719209,1868.9049,200.506,87.25,232.82,C6H16N2,hexamethylenediamine,124-09-4,313.95,Yaw
CCN(CC)CCN,"1,2",4.700256407719209,1701.8803,216.032,42.57,170.83,C6H16N2,"N,N-diethyl-1,2-ethanediamine",100-36-7,266.0,Yaw
CCNCCNCC,"1,2",4.485176407719209,1652.9064,215.476,44.17,179.56,C6H16N2,"N,N'-diethyl-1,2-ethanediamine",111-74-0,266.0,Yaw
CN(C)CCN(C)C,"1,2",4.787386407719208,1644.3526,222.426,24.17,144.1,C6H16N2,"N,N,N',N'-tetramethyl-1,2-ethanediamine",110-18-9,218.05,Yaw
CC(C)NNC(C)C,"1,2",4.788376407719209,1658.5234,221.314,27.37,148.29,C6H16N2,"1,2-diisopropylhydrazine",3711-34-0,249.30746388413203,ML
CCCCNCCN,3,4.405146407719209,1671.5017,212.14,53.77,195.13,C6H16N2,N-butylethylenediamine,19522-69-1,266.0,Yaw
CC(CN)CCCN,3,6.248966407719209,2310.3232,202.41,81.77,186.01,C6H16N2,"1,5-diamino-2-methylpentane",15520-10-2,266.0,Yaw
CC(C)NCCCN,"1,2",4.796866407719208,1789.6072,211.028,56.97,187.03,C6H16N2,"N-isopropyl-1,3-propanediamine",3360-16-5,266.0,Yaw
CCCNCCCN,"1,2",4.7983364077192086,1814.4077,209.082,62.57,194.36,C6H16N2,"N-propyl-1,3-propanediamine",23764-31-0,266.0,Yaw
CNCCCN(C)C,"1,2",4.792206407719209,1715.2073,216.866,40.17,165.04,C6H16N2,"N,N,N'-trimethyl-1,3-propanediamine",4543-96-8,266.0,Yaw
CC(N)CC(C)(C)N,3,4.330306407719209,1645.4061,212.672,52.24,195.69,C6H16N2,"2-methyl-2,4-pentanediamine",21586-21-0,266.0,Yaw
CCO[Si](C)(C)OCC,3,4.1481864077192085,1335.0862,207.848,13.6,139.18,C6H16O2Si,diethoxydimethylsilane,78-62-6,186.15,Yaw
C[Si](C)(Cl)O[Si](C)(C)O[Si](C)(C)Cl,3,4.567286407719209,1860.4527,223.343,65.18,212.74,C6H18Cl2O2Si3,"1,5-dichloro-1,1,3,3,5,5-hexamethyltrisiloxane",3582-71-6,220.15,Yaw
CN(C)P(=O)(N(C)C)N(C)C,3,5.183386407719208,2397.8299,229.599,109.84,261.52,C6H18N3OP,hexamethyl phosphoramide,680-31-9,280.15,Yaw
NCCNCCNCCN,"1,2",5.219246407719208,2319.7769,177.916,148.81,293.75,C6H18N4,triethylene tetramine,112-24-3,285.15,Yaw
C[Si](C)(C)O[Si](C)(C)C,3,4.075226407719208,1285.1162,215.098,0.67,125.4,C6H18OSi2,hexamethyldisiloxane,107-46-0,204.93,Yaw
C[Si](C)(C)N[Si](C)(C)C,3,4.427566407719208,1581.2599,231.139,19.52,152.05,C6H19NSi2,hexamethyldisilazane,999-97-3,283.197712499059,ML
FC(F)=C(F)C(F)(F)C(F)(F)C(F)(F)C(F)(F)C(F)(F)F,"1,2",4.520146407719209,1421.1178,233.546,-11.53,103.28,C7F14,perfluoro-1-heptene,355-63-5,187.38867402366182,ML
FC(F)(F)C1(F)C(F)(F)C(F)(F)C(F)(F)C(F)(F)C1(F)F,3,3.1119164077192085,1019.6949,221.073,-21.0,141.69,C7F14,perfluoromethylcyclohexane,355-02-2,228.45,Yaw
FC1(F)C(F)(F)C(F)(F)C(F)(F)C(F)(F)C(F)(F)C1(F)F,3,4.549286407719209,1610.0,273.15,-22.76,105.83,C7F14,perfluorocycloheptane,355-59-9,261.7878686543875,ML
FC(F)(F)C(F)(F)C(F)(F)C(F)(F)C(F)(F)C(F)(F)C(F)(F)F,"1,2",4.666686407719209,1469.908,233.129,-8.63,103.57,C7F16,perfluoroheptane,335-57-9,221.95,Yaw
FC(F)(F)C(F)(F)N(C(F)(F)C(F)(F)F)C(F)(F)C(F)(F)C(F)(F)F,3,5.640286407719209,2048.0,273.15,-0.85,110.42,C7F17N,"perfluoro-N,N-diethylpropylamine",338-81-8,177.43008921566226,ML
FC(F)C(F)(F)C(F)(F)C(F)(F)C(F)(F)C(F)(F)C(F)(F)F,3,1.4414564077192082,886.476,269.14,-7.0,508.18,C7HF15,1H-pentadecafluoroheptane,375-83-7,223.81489514804028,ML
O=[N+]([O-])c1cc(C(F)(F)F)ccc1Cl,3,4.553386407719208,1894.1606,193.989,100.4,251.45,C7H3ClF3NO2,4-chloro-3-nitrobenzotrifluoride,121-17-5,304.8261272426519,ML
O=[N+]([O-])c1ccc(Cl)c(C(F)(F)F)c1,3,4.269296407719208,1778.76,184.64,90.85,263.61,C7H3ClF3NO2,1-chloro-4-nitro-2-(trifluoromethyl)benzene,777-37-7,295.15,Yaw
FC(F)(F)c1ccc(Cl)cc1Cl,3,4.314926407719208,1677.6421,211.299,59.47,206.66,C7H3Cl2F3,"2,4-dichlorobenzotrifluoride",320-60-5,247.55,Yaw
FC(F)(F)c1ccc(Cl)c(Cl)c1,3,5.569206407719209,2636.756,300.003,53.92,200.5,C7H3Cl2F3,"3,4-dichlorobenzotrifluoride",328-84-7,260.75,Yaw
O=C=Nc1ccc(Cl)c(Cl)c1,"1,2",3.6610164077192087,1737.8998,218.705,94.89,298.53,C7H3Cl2NO,"3,4-dichlorophenyl isocyanate",102-36-3,316.15,Yaw
Clc1ccc(C(Cl)(Cl)Cl)cc1Cl,"1,2",4.607116407719209,2121.633,177.363,149.65,315.34,C7H3Cl5,"1,2-dichloro-4-(trichloromethyl)benzene",13014-24-9,298.95,Yaw
Clc1ccc(C(Cl)Cl)c(Cl)c1Cl,2,4.146676407719209,1955.0189,178.78,145.57,329.59,C7H3Cl5,"1,2,3-trichloro-4-(dichloromethyl)benzene",56961-82-1,357.15,Yaw
Clc1cc(Cl)c(C(Cl)Cl)cc1Cl,2,4.220746407719209,1987.004,178.085,111.53,328.84,C7H3Cl5,"1,2,4-trichloro-5-(dichloromethyl)benzene",33429-70-8,384.68,Yaw
Cc1c(F)c(F)c(F)c(F)c1F,3,4.0473764077192085,1333.3661,209.534,15.39,146.38,C7H3F5,"2,3,4,5,6-pentafluorotoluene",771-56-2,243.37,Yaw
FC(F)(F)c1ccc(Cl)cc1,3,4.292436407719209,1548.5951,222.073,28.78,165.91,C7H4ClF3,p-chlorobenzotrifluoride,98-56-6,239.97,Yaw
FC(F)(F)c1ccccc1Cl,3,4.090006407719208,1460.221,204.822,39.74,180.56,C7H4ClF3,1-chloro-2-(trifluoromethyl)benzene,88-16-4,267.15,Yaw
FC(F)(F)c1cccc(Cl)c1,3,4.188526407719209,1465.5618,212.399,29.07,164.59,C7H4ClF3,1-chloro-3-(trifluoromethyl)benzene,98-15-7,217.15,Yaw
O=C=Nc1ccc(Cl)cc1,"1,2",11.96779640771921,10500.0,676.198,49.85,226.2,C7H4ClNO,4-chlorophenyl isocyanate,104-12-1,304.45,Yaw
O=C=Nc1cccc(Cl)c1,3,3.900536407719208,1474.03,177.154,70.85,232.35,C7H4ClNO,3-chlorophenyl isocyanate,2909-38-8,269.05,Yaw
O=C(Cl)c1cccc([N+](=O)[O-])c1,3,5.931046407719208,3260.0,273.15,144.16,305.89,C7H4ClNO3,3-nitrobenzoyl chloride,121-90-4,309.15,Yaw
O=C(Cl)c1cccc(Cl)c1,3,3.940796407719208,1866.716,225.056,95.6,287.81,C7H4Cl2O,m-chlorobenzoyl chloride,618-46-2,280.0,Yaw
O=C(Cl)c1ccccc1Cl,3,3.2115964077192087,1302.4615,156.916,93.0,290.58,C7H4Cl2O,o-chlorobenzoyl chloride,609-65-4,269.15,Yaw
O=C(Cl)c1ccc(Cl)cc1,3,4.808436407719209,2508.9649,273.15,96.85,283.48,C7H4Cl2O,p-chlorobenzoyl chloride,122-01-0,289.15,Yaw
Clc1ccccc1C(Cl)(Cl)Cl,"1,2",4.108036407719209,1826.5924,182.589,122.41,297.21,C7H4Cl4,1-chloro-2-(trichloromethyl)benzene,2136-89-2,302.55,Yaw
Clc1cccc(C(Cl)(Cl)Cl)c1,2,4.061236407719209,1783.4713,185.174,114.97,289.13,C7H4Cl4,1-chloro-3-(trichloromethyl)benzene,2136-81-4,273.75,Yaw
Clc1ccc(C(Cl)(Cl)Cl)cc1,"1,2",4.017216407719209,1739.4732,187.954,106.97,280.13,C7H4Cl4,1-chloro-4-(trichloromethyl)benzene,5216-25-1,327.53,Yaw
Clc1ccc(C(Cl)Cl)cc1Cl,2,4.122816407719209,1808.2229,184.618,116.57,288.52,C7H4Cl4,"1,2-dichloro-4-(dichloromethyl)benzene",56961-84-3,327.53,Yaw
Cc1c(Cl)cc(Cl)c(Cl)c1Cl,2,4.808036407719209,2082.6895,179.197,94.0,282.9,C7H4Cl4,"1,2,3,5-tetrachloro-4-methylbenzene",875-40-1,367.15,Yaw
Cc1c(Cl)c(Cl)cc(Cl)c1Cl,2,4.295126407719208,1878.0669,183.284,120.81,286.93,C7H4Cl4,"1,2,4,5-tetrachloro-3-methylbenzene",1006-31-1,366.65,Yaw
ClCc1cc(Cl)c(Cl)cc1Cl,2,4.672416407719209,2028.4882,180.17,129.37,283.87,C7H4Cl4,"1,2,4-trichloro-5-(chloromethyl)benzene",3955-26-8,327.53,Yaw
O=[N+]([O-])c1cccc(C(F)(F)F)c1,3,4.5229064077192085,1847.4366,205.683,82.81,231.9,C7H4F3NO2,3-nitrobenzotrifluoride,98-46-4,272.0,Yaw
Fc1cccc(C(F)(F)F)c1,3,4.995986407719209,1530.5408,215.732,6.83,110.26,C7H4F4,1-fluoro-3-(trifluoromethyl)benzene,401-80-9,191.65,Yaw
Fc1ccc(C(F)(F)F)cc1,3,5.145856407719208,1750.5018,249.555,-0.43,111.76,C7H4F4,1-fluoro-4-(trifluoromethyl)benzene,402-44-8,231.45,Yaw
OCC(F)(F)C(F)(F)C(F)(F)C(F)(F)C(F)(F)C(F)F,3,6.305206407719208,2791.0,273.15,67.8,191.69,C7H4F12O,"1H,1H,7H-dodecafluoroheptanol",335-99-9,311.03176904153537,ML
O=C(Br)c1ccccc1,3,4.833666407719209,2218.5223,240.473,89.94,248.98,C7H5BrO,benzoyl bromide,618-32-6,249.15,Yaw
O=C(Cl)c1ccccc1,3,4.993576407719209,2119.7138,235.784,72.57,215.93,C7H5ClO,benzoyl chloride,98-88-4,272.65,Yaw
O=Cc1ccccc1Cl,3,5.395796407719208,2091.9681,199.0,88.49,211.61,C7H5ClO,2-chlorobenzaldehyde,89-98-5,285.55,Yaw
O=C(O)c1ccccc1Cl,3,10.217086407719208,3949.2762,168.849,142.0,229.42,C7H5ClO2,o-chlorobenzoic acid,118-91-2,415.15,Yaw
ClC(Cl)=Nc1ccccc1,3,3.528206407719209,1976.4719,273.15,92.25,339.3,C7H5Cl2N,phenyl isocyanide dichloride,622-44-6,292.65,Yaw
ClC(Cl)(Cl)c1ccccc1,2,3.5023364077192083,1495.8777,196.711,81.17,270.56,C7H5Cl3,benzotrichloride,98-07-7,268.4,Yaw
ClCc1ccc(Cl)c(Cl)c1,"1,2",3.986376407719209,1714.6068,189.066,103.17,276.18,C7H5Cl3,"1,2-dichloro-4-(chloromethyl)benzene",102-47-6,310.65,Yaw
ClCc1cc(Cl)cc(Cl)c1,2,3.427476407719209,1466.7623,197.545,78.77,271.6,C7H5Cl3,"1,3-dichloro-5-(chloromethyl)benzene",3290-06-0,309.15,Yaw
Cc1ccc(Cl)c(Cl)c1Cl,2,4.426836407719208,1853.2011,188.232,105.57,260.94,C7H5Cl3,"1,2,3-trichloro-4-methylbenzene",7359-72-0,316.65,Yaw
Cc1cc(Cl)c(Cl)c(Cl)c1,2,4.500246407719208,1881.432,187.676,107.17,260.37,C7H5Cl3,"1,2,3-trichloro-5-methylbenzene",21472-86-6,318.65,Yaw
Cc1cc(Cl)c(Cl)cc1Cl,"1,2",3.949546407719208,1673.4087,191.846,82.4,266.81,C7H5Cl3,"1,2,4-trichloro-5-methylbenzene",6639-30-1,355.55,Yaw
Cc1cc(Cl)cc(Cl)c1Cl,2,3.961296407719209,1673.7311,192.124,94.37,265.15,C7H5Cl3,"1,2,5-trichloro-3-methylbenzene",56961-86-5,318.65,Yaw
Clc1cccc(C(Cl)Cl)c1,2,3.427476407719209,1466.7623,197.545,78.77,271.6,C7H5Cl3,3-chlorobenzal chloride,15145-69-4,308.79,Yaw
ClCc1ccc(Cl)cc1Cl,"1,2",3.995656407719209,1738.7894,187.12,108.77,283.51,C7H5Cl3,"2,4-dichlorobenzyl chloride",94-99-5,270.8,Yaw
Cc1c(Cl)ccc(Cl)c1Cl,2,3.427476407719209,1466.7623,197.545,78.77,271.6,C7H5Cl3,"2,3,6-trichlorotoluene",2077-46-5,308.79,Yaw
Clc1ccc(C(Cl)Cl)cc1,2,3.427476407719209,1466.7623,197.545,78.77,271.6,C7H5Cl3,a-a-p-trichlorotoluene,13940-94-8,308.79,Yaw
CCC(Cl)(Cl)C(F)(F)C(F)(F)C(F)(F)C(F)(F)Cl,3,4.238586407719208,1972.2,273.15,49.14,227.72,C7H5Cl3F8,"1,1,2,2,3,3,4,4-octafluoro-1,5,5-trichloroheptane",16395-71-4,275.27369686352216,ML
O=C(O)c1cccc(F)c1,3,9.556286407719208,4771.0,273.15,144.0,242.34,C7H5FO2,3-fluorobenzoic acid,455-38-9,397.15,Yaw
FC(F)(F)c1ccccc1,"1,2",4.166856407719209,1365.7402,225.913,-29.01,127.37,C7H5F3,benzotrifluoride,98-08-8,244.14,Yaw
N#Cc1ccccc1,"1,2",4.491486407719209,1869.9045,225.472,67.97,220.76,C7H5N,benzonitrile,100-47-0,260.4,Yaw
O=C=Nc1ccccc1,"1,2",4.752766407719209,1947.9049,244.056,49.59,193.5,C7H5NO,phenyl isocyanate,103-71-9,243.15,Yaw
S=C=Nc1ccccc1,3,3.881556407719208,1613.2784,194.626,79.4,255.94,C7H5NS,phenyl isothiocyanate,103-72-0,252.15,Yaw
BrCc1ccccc1Br,2,4.076516407719208,1767.887,188.788,107.97,279.47,C7H6Br2,1-bromo-2-(bromomethyl)benzene,3433-80-5,304.15,Yaw
BrCc1ccc(Br)cc1,2,4.076516407719208,1767.887,188.788,107.97,279.47,C7H6Br2,1-bromo-4-(bromomethyl)benzene,589-15-1,336.15,Yaw
BrC(Br)c1ccccc1,2,4.076516407719208,1767.887,188.788,107.97,279.47,C7H6Br2,(dibromomethyl)benzene,618-31-5,274.15,Yaw
Cc1cccc(Br)c1Br,2,4.076516407719208,1767.887,188.788,107.97,279.47,C7H6Br2,"1,2-dibromo-3-methylbenzene",61563-25-5,303.65,Yaw
Cc1ccc(Br)c(Br)c1,2,3.910726407719209,1698.1623,189.344,103.87,281.1,C7H6Br2,"1,2-dibromo-4-methylbenzene",60956-23-2,263.15,Yaw
Cc1c(Br)cccc1Br,2,4.091776407719209,1769.9548,187.676,108.67,279.24,C7H6Br2,"1,3-dibromo-2-methylbenzene",69321-60-4,278.65,Yaw
Cc1cc(Br)ccc1Br,"1,2",4.044576407719209,1725.0359,190.456,100.67,270.35,C7H6Br2,"1,4-dibromo-2-methylbenzene",615-59-8,278.75,Yaw
Cc1ccc(Br)cc1Br,2,4.076516407719208,1767.887,188.788,107.97,279.47,C7H6Br2,"2,4-dibromo-1-methylbenzene",31543-75-6,263.45,Yaw
BrCc1cccc(Br)c1,2,4.076516407719208,1767.887,188.788,107.97,279.47,C7H6Br2,3-bromobenzyl bromide,823-78-9,312.65,Yaw
Cc1cc(Br)cc(Br)c1,"1,2",4.057156407719209,1759.6954,187.676,108.67,280.81,C7H6Br2,"3,5-dibromotoluene",1611-92-3,309.65,Yaw
ClC(Cl)c1ccccc1,"1,2",6.127966407719208,2566.9522,241.742,78.78,198.79,C7H6Cl2,benzyl dichloride,98-87-3,257.0,Yaw
Cc1ccc(Cl)cc1Cl,"1,2",4.078946407719209,1632.4287,200.159,73.75,231.94,C7H6Cl2,"2,4-dichlorotoluene",95-73-8,259.65,Yaw
ClCc1ccccc1Cl,"1,2",4.176746407719208,1709.4943,195.738,86.47,245.34,C7H6Cl2,1-chloro-2-(chloromethyl)benzene,611-19-8,256.15,Yaw
ClCc1cccc(Cl)c1,"1,2",4.079146407719208,1678.8388,196.016,85.67,248.34,C7H6Cl2,1-chloro-3-(chloromethyl)benzene,620-20-2,276.42,Yaw
ClCc1ccc(Cl)cc1,2,4.702376407719209,1878.45,194.07,91.27,232.72,C7H6Cl2,1-chloro-4-(chloromethyl)benzene,104-83-6,304.15,Yaw
Cc1cccc(Cl)c1Cl,"1,2",4.052336407719209,1644.9608,198.379,78.87,240.12,C7H6Cl2,"2,3-dichlorotoluene",32768-54-0,279.15,Yaw
Cc1cc(Cl)ccc1Cl,"1,2",4.090476407719208,1632.1579,200.464,72.87,230.25,C7H6Cl2,"2,5-dichlorotoluene",19398-61-9,275.65,Yaw
Cc1c(Cl)cccc1Cl,"1,2",3.992266407719209,1599.1814,201.02,71.27,232.22,C7H6Cl2,"2,6-dichlorotoluene",118-69-4,298.95,Yaw
Cc1ccc(Cl)c(Cl)c1,"1,2",4.054196407719209,1649.8138,197.99,79.99,241.59,C7H6Cl2,"3,4-dichlorotoluene",95-75-0,257.95,Yaw
Cc1cc(Cl)cc(Cl)c1,"1,2",4.044266407719209,1624.1679,200.047,74.07,233.85,C7H6Cl2,"3,5-dichlorotoluene",25186-47-4,299.15,Yaw
FC(F)c1ccccc1,2,5.806656407719208,1925.8224,217.144,33.37,132.65,C7H6F2,(difluoromethyl)benzene,455-31-2,220.68353390685425,ML
Cc1ccc(F)c(F)c1,2,4.263776407719209,1447.8936,225.067,10.57,140.31,C7H6F2,"3,4-difluorotoluene",2927-34-6,216.58984979997285,ML
Cc1c(F)cccc1F,2,4.284986407719209,1454.5013,224.928,10.97,140.16,C7H6F2,"2,6-difluorotoluene",443-84-5,213.6288990044513,ML
Cc1cc(F)ccc1F,"1,2",4.398696407719209,1497.3884,223.566,14.89,141.86,C7H6F2,"2,5-difluorotoluene",452-67-5,217.40197365776598,ML
Cc1ccc(F)cc1F,"1,2",4.392466407719208,1489.6803,224.094,13.37,140.0,C7H6F2,"2,4-difluorotoluene",452-76-6,223.882396953038,ML
Nc1cccc(C(F)(F)F)c1,3,4.336036407719209,1650.21,193.58,60.85,215.39,C7H6F3N,3-(trifluoromethyl)aniline,98-16-8,278.65,Yaw
Cc1cc([N+](=O)[O-])ccc1[N+](=O)[O-],3,4.751606407719208,2356.2451,175.376,179.89,354.05,C7H6N2O4,"2,5-dinitrotoluene",619-15-8,323.48,Yaw
Cc1ccc([N+](=O)[O-])c([N+](=O)[O-])c1,3,5.514496407719209,2721.8666,173.075,194.98,349.01,C7H6N2O4,"3,4-dinitrotoluene",610-39-9,331.45,Yaw
Cc1cc([N+](=O)[O-])cc([N+](=O)[O-])c1,"1,2",5.241946407719208,2986.892,251.868,167.48,352.65,C7H6N2O4,"3,5-dinitrotoluene",618-85-9,365.65,Yaw
O=Cc1ccccc1,"1,2",4.369626407719209,1733.7871,217.931,59.46,208.21,C7H6O,benzaldehyde,100-52-7,216.02,Yaw
O=C(O)c1ccccc1,"1,2",4.545346407719209,1826.9348,152.886,122.37,277.56,C7H6O2,benzoic acid,65-85-0,395.52,Yaw
O=Cc1ccccc1O,"1,2",5.444336407719209,2546.3883,270.663,76.96,224.42,C7H6O2,salicylaldehyde,90-02-8,274.75,Yaw
O=C(O)c1ccccc1O,"1,2",5.151206407719208,2134.58,159.697,143.85,280.41,C7H6O3,salicylic acid,69-72-7,431.75,Yaw
Cc1ccc(Br)cc1,"1,2",4.094266407719209,1593.3437,204.815,26.8,215.23,C7H7Br,p-bromotoluene,106-38-7,299.95,Yaw
BrCc1ccccc1,"1,2",4.197546407719209,1673.716,200.186,75.17,229.35,C7H7Br,(bromomethyl)benzene,100-39-0,271.65,Yaw
Cc1ccccc1Br,"1,2",4.099126407719209,1586.3681,205.552,59.73,212.12,C7H7Br,o-bromotoluene,95-46-5,245.35,Yaw
Cc1cccc(Br)c1,"1,2",4.091726407719209,1590.6406,204.996,61.33,214.62,C7H7Br,m-bromotoluene,591-17-3,233.35,Yaw
ClCc1ccccc1,"1,2",4.1561164077192085,1600.277,206.191,58.89,208.92,C7H7Cl,benzyl chloride,100-44-7,234.15,Yaw
Cc1ccccc1Cl,"1,2",4.151306407719209,1535.2382,211.821,42.69,186.91,C7H7Cl,o-chlorotoluene,95-49-8,236.65,Yaw
Cc1ccc(Cl)cc1,"1,2",4.137846407719208,1542.3368,210.889,45.37,191.09,C7H7Cl,p-chlorotoluene,106-43-4,280.65,Yaw
Cc1cccc(Cl)c1,"1,2",4.123416407719208,1538.0122,210.945,45.21,191.43,C7H7Cl,m-chlorotoluene,108-41-8,225.35,Yaw
COc1ccccc1Cl,3,5.201646407719208,2248.079,239.707,77.71,219.03,C7H7ClO,o-chloroanisole,766-51-8,246.35,Yaw
Cc1ccc(F)cc1,"1,2",4.2550764077192085,1444.9066,222.923,12.56,142.5,C7H7F,p-fluorotoluene,352-32-9,216.36,Yaw
FCc1ccccc1,"1,2",4.348796407719209,1548.1482,217.144,31.37,165.33,C7H7F,(fluoromethyl)benzene,350-50-5,238.15,Yaw
Cc1ccccc1F,"1,2",4.321476407719208,1460.4168,224.094,11.37,139.15,C7H7F,o-fluorotoluene,95-52-3,211.15,Yaw
Cc1cccc(F)c1,"1,2",4.218556407719209,1436.1848,224.094,11.37,142.51,C7H7F,m-fluorotoluene,352-70-5,186.15,Yaw
Cc1ccccc1I,"1,2",4.034786407719209,1649.4887,197.267,81.57,244.51,C7H7I,1-iodo-2-methylbenzene,615-37-2,284.42,Yaw
Cc1cccc(I)c1,"1,2",4.036796407719208,1654.6835,196.85,82.77,246.08,C7H7I,1-iodo-3-methylbenzene,625-95-6,245.95,Yaw
ICc1ccccc1,2,4.006086407719208,1642.5118,197.175,81.84,246.14,C7H7I,(iodomethyl)benzene,620-05-3,297.65,Yaw
Cc1ccc(I)cc1,"1,2",4.0186364077192085,1643.4475,197.406,81.17,244.66,C7H7I,p-iodotoluene,624-31-7,309.65,Yaw
COc1ccc(I)cc1,3,4.508206407719209,2003.4,206.39,107.18,269.8,C7H7IO,1-iodo-4-methoxybenzene,696-62-8,326.15,Yaw
O=CNc1ccccc1,3,7.061016407719208,2925.9849,188.545,138.68,244.29,C7H7NO,formanilide,103-70-8,323.15,Yaw
Cc1cccc([N+](=O)[O-])c1O,3,2.406716407719209,1094.822,188.868,66.48,331.07,C7H7NO3,2-methyl-6-nitrophenol,13073-29-5,343.15,Yaw
Cc1ccc(O)c([N+](=O)[O-])c1,3,2.412296407719209,1097.3573,188.868,66.74,330.9,C7H7NO3,4-methyl-2-nitrophenol,119-33-5,309.65,Yaw
COc1ccccc1[N+](=O)[O-],3,4.896296407719209,2540.3278,242.792,132.05,310.02,C7H7NO3,o-nitroanisole,91-23-6,283.6,Yaw
Cc1ccc(O)cc1[N+](=O)[O-],3,2.389356407719209,1086.9248,188.868,65.67,331.61,C7H7NO3,4-methyl-3-nitrophenol,2042-14-0,352.65,Yaw
Cc1cccc(O)c1[N+](=O)[O-],3,2.412296407719209,1097.3573,188.868,66.74,330.9,C7H7NO3,3-methyl-2-nitrophenol,4920-77-8,311.15,Yaw
Cc1ccc([N+](=O)[O-])c(O)c1,3,2.412296407719209,1097.3573,188.868,66.74,330.9,C7H7NO3,5-methyl-2-nitrophenol,700-38-9,327.65,Yaw
C1=CC=CCC=C1,"1,2",4.532136407719209,1684.3144,255.088,7.55,142.99,C7H8,"1,3,5-cycloheptatriene",544-25-2,193.66,Yaw
Cc1ccccc1,"1,2",4.2557564077192085,1457.2871,231.827,5.65,136.67,C7H8,toluene,108-88-3,178.0,Yaw
C=CC#CCC=C,2,4.011596407719209,1372.0725,225.484,7.37,144.29,C7H8,"1,6-heptadien-3-yne",5150-80-1,188.0708472067266,ML
C#CCCC#CC,2,4.398356407719208,1529.3734,226.172,17.39,147.09,C7H8,"1,5-heptadiyne",764-56-7,188.15,Yaw
C#CCCCC#C,"1,2",5.077826407719209,1711.1189,224.928,20.97,133.29,C7H8,"1,6-heptadiyne",2396-63-6,188.15,Yaw
C1=CC2C=CC1C2,"1,2",4.396206407719209,1466.3258,244.043,-15.0,114.02,C7H8,"2,5-norbornadiene",121-46-0,254.05,Yaw
C1C2C3C2C2C1C32,3,4.381856407719209,1469.9737,228.926,5.79,131.29,C7H8,quadricyclane,278-06-8,228.0,Yaw
C=CC#CC(=C)C,2,3.918306407719209,1342.8617,226.172,5.39,145.06,C7H8,methyl divinyl acetylene,820-54-2,197.83304781982065,ML
C[Si](Cl)(Cl)c1ccccc1,3,4.3564264077192085,1833.1898,216.601,77.31,235.44,C7H8Cl2Si,dichloromethylphenylsilane,149-74-6,229.65,Yaw
Cc1ccc([SiH](Cl)Cl)cc1,3,5.067016407719208,2094.47,216.94,84.52,222.52,C7H8Cl2Si,dichloro-4-tolylsilane,13272-80-5,246.71516686122936,ML
Cl[SiH](Cl)Cc1ccccc1,3,5.006816407719208,2033.07,211.74,83.44,220.3,C7H8Cl2Si,dichlorobenzylsilane,18173-99-4,271.0670186886843,ML
FC(F)[SiH2]c1ccccc1,3,4.255106407719208,1507.41,211.09,29.85,170.14,C7H8F2Si,difluoromethylphenylsilane,328-57-4,219.04299029208798,ML
Cc1c(N)cccc1[N+](=O)[O-],"1,2",4.579216407719208,2181.1929,171.274,166.37,338.57,C7H8N2O2,2-methyl-3-nitroaniline,603-83-8,365.15,Yaw
Cc1cc([N+](=O)[O-])ccc1N,3,3.363786407719209,1616.2131,185.869,122.3,341.83,C7H8N2O2,2-methyl-4-nitroaniline,99-52-5,406.65,Yaw
Cc1ccc([N+](=O)[O-])cc1N,3,3.427616407719209,1646.883,185.869,124.37,340.87,C7H8N2O2,2-methyl-5-nitroaniline,99-55-8,378.65,Yaw
Cc1cccc([N+](=O)[O-])c1N,3,3.427616407719209,1646.883,185.869,124.37,340.87,C7H8N2O2,2-methyl-6-nitroaniline,570-24-1,369.15,Yaw