smiles,code,A [log10(atm)],B [C],C [C],TMIN [C],TMAX [C],FORMULA,NAME,CAS No,mp [K],mp_type
FC(F)C(F)(Cl)C(F)(F)F,3,3.1033364077192083,860.9772,260.693,-87.95,46.55,C3HClF6,"2-chloro-1,1,1,2,3,3-hexafluoropropane",51346-64-6,180.95803148048105,ML
FC(Cl)C(F)(F)C(F)(F)F,3,3.1033364077192083,860.9772,260.693,-87.95,46.55,C3HClF6,"3-chloro-1,1,1,2,2,3-hexafluoropropane",422-57-1,165.87365132257,ML
FC(F)(F)C(C(F)(F)Cl)S(F)(F)(F)(F)F,3,4.629286407719209,1628.5,273.15,-23.0,103.1,C3HClF10S,"[1-(chlorodifluoromethyl)-2,2,2-trifluoroethyl] pentafluoro sulfur",68010-36-6,269.69727809334495,ML
FC(F)(F)C(Cl)=CCl,"1,2",4.466116407719209,1316.7696,241.136,-33.67,75.01,C3HCl2F3,"1,2-dichloro-3,3,3-trifluoropropene",431-27-6,163.95,Yaw
FC(F)(F)C(F)(F)C(Cl)Cl,2,4.591096407719209,1346.5222,241.886,-33.83,71.98,C3HCl2F5,"3,3-dichloro-1,1,1,2,2-pentafluoropropane",422-56-0,179.25,Yaw
FC(Cl)C(F)(F)C(F)(F)Cl,"1,2",4.728516407719209,1385.8089,241.025,-31.35,74.69,C3HCl2F5,"1,3-dichloro-1,1,2,2,3-pentafluoropropane",507-55-1,176.25,Yaw
FC(F)C(F)(F)C(F)(Cl)Cl,2,4.722326407719208,1381.9254,241.233,-31.95,73.91,C3HCl2F5,"1,1-dichloro-1,2,2,3,3-pentafluoropropane",13474-88-9,193.4823109830306,ML
FC(F)(F)C(Cl)C(F)(F)Cl,2,4.722326407719208,1381.9254,241.233,-31.95,73.91,C3HCl2F5,"1,2-dichloro-1,1,3,3,3-pentafluoropropane",431-86-7,197.59565098337453,ML
FC(C(F)(F)Cl)C(F)(F)Cl,2,4.722326407719208,1381.9254,241.233,-31.95,73.91,C3HCl2F5,"1,3-dichloro-1,1,2,3,3-pentafluoropropane",136013-79-1,177.18342404241844,ML
FC(C(F)(F)F)C(F)(Cl)Cl,2,4.722326407719208,1381.9254,241.233,-31.95,73.91,C3HCl2F5,"1,1-dichloro-1,2,3,3,3-pentafluoropropane",111512-56-2,182.92078211559223,ML
FC(F)C(Cl)(Cl)C(F)(F)F,2,4.722326407719208,1381.9254,241.233,-31.95,73.91,C3HCl2F5,"2,2-dichloro-1,1,1,3,3-pentafluoropropane",128903-21-9,230.31259976525607,ML
FC(Cl)C(F)(Cl)C(F)(F)F,"1,2",4.6915664077192085,1375.4871,241.233,-31.95,73.91,C3HCl2F5,"2,3-dichloro-1,1,1,2,3-pentafluoropropane",422-48-0,197.6955755355942,ML
FC(F)C(F)(Cl)C(F)(F)Cl,2,4.722326407719208,1381.9254,241.233,-31.95,73.91,C3HCl2F5,"1,2-dichloro-1,1,2,3,3-pentafluoropropane",422-44-6,188.57602873327383,ML
FC(F)(Cl)C(F)(F)C(Cl)Cl,3,3.5364464077192084,1169.8027,236.09,-20.15,125.47,C3HCl3F4,trichlorotetrafluoropropane,134237-38-0,197.16350930319973,ML
FC(Cl)C(F)(F)C(F)(Cl)Cl,3,3.5364464077192084,1169.8027,236.09,-20.15,125.47,C3HCl3F4,"1,1,3-trichloro-1,2,2,3-tetrafluoropropane",422-53-7,212.28606253652185,ML
FC(F)C(F)(F)C(Cl)(Cl)Cl,3,3.5364464077192084,1169.8027,236.09,-20.15,125.47,C3HCl3F4,"1,1,1-trichloro-2,2,3,3-tetrafluoropropane",422-51-5,238.38050115374475,ML
FC(Cl)(Cl)C(F)(F)C(Cl)Cl,2,3.796636407719209,1333.4295,224.414,10.45,157.04,C3HCl4F3,tetrachlorotrifluoropropane,134237-37-9,237.49057482098135,ML
FC(Cl)C(F)(F)C(Cl)(Cl)Cl,2,3.796636407719209,1333.4295,224.414,10.45,157.04,C3HCl4F3,"1,1,1,3-tetrachloro-2,2,3-trifluoropropane",422-50-4,256.6505779708583,ML
FC(F)(Cl)C(Cl)(Cl)C(Cl)Cl,2,4.270446407719208,1622.8983,212.182,51.65,196.67,C3HCl5F2,pentachlorodifluoropropane,134237-36-8,272.6693051135993,ML
FC(F)(C(Cl)Cl)C(Cl)(Cl)Cl,"1,2",4.138606407719209,1588.1154,212.182,51.65,201.65,C3HCl5F2,"1,1,1,3,3-pentachloro-2,2-difluoropropane",422-49-1,273.2950727575839,ML
FC(Cl)C(Cl)(Cl)C(Cl)(Cl)Cl,"1,2",4.1681764077192085,1715.905,201.618,82.05,242.1,C3HCl6F,"1,1,1,2,2,3-hexachloro-3-fluoropropane",422-26-4,303.6727795916402,ML
C#CC(F)(F)F,"1,2",4.827216407719209,1095.7776,273.15,-109.8,-31.05,C3HF3,"3,3,3-trifluoro-1-propyne",661-54-1,165.03060893626696,ML
FC(C(F)(F)F)C(F)(F)F,"1,2",5.042126407719208,1231.625,260.607,-82.7,101.75,C3HF7,heptafluoropropane,431-89-0,146.35,Yaw
FC(F)C(F)(F)C(F)(F)F,"1,2",5.033796407719208,1230.0697,260.612,-82.72,-0.71,C3HF7,"1,1,2,2,3,3,3-heptafluoropropane",2252-84-8,146.35,Yaw
FC(F)C(F)(F)OC(F)(F)F,3,4.113486407719209,1102.1616,256.898,-73.03,32.2,C3HF7O,"trifluoromethyl 1,1,2,2-tetrafluoroethyl ether",2356-61-8,132.0,Yaw
FC(OC(F)(F)F)C(F)(F)F,3,4.113486407719209,1102.1616,256.898,-73.03,32.2,C3HF7O,"trifluoromethyl 1,2,2,2-tetrafluoroethyl ether",2356-62-9,211.0382260759052,ML
O=S(F)OC(C(F)(F)F)C(F)(F)F,3,5.329286407719209,1766.0,273.15,-28.22,78.07,C3HF7O2S,"fluorosulfurous acid, 2,2,2-trifluoro-1-(trifluoromethyl)ethyl ester",52225-56-6,249.9580296333351,ML
FC(F)(F)C(F)(F)CCl,3,3.408076407719209,915.1099,260.543,-87.52,33.98,C3H2ClF5,"3-chloro-1,1,1,2,2-pentafluoropropane",422-02-6,176.92981717599218,ML
FC(F)C(F)(F)C(F)Cl,3,3.408076407719209,915.1099,260.543,-87.52,33.98,C3H2ClF5,"1-chloro-1,2,2,3,3-pentafluoropropane",28103-66-4,184.77510622747377,ML
FCC(F)(F)C(F)(F)Cl,"1,2",2.8086064077192088,811.3862,260.543,-87.52,63.03,C3H2ClF5,"1-chloro-1,1,3,3,3-pentafluoropropane",677-55-4,170.05415808768137,ML
FC(F)C(Cl)C(F)(F)F,3,3.408076407719209,915.1099,260.543,-87.52,33.98,C3H2ClF5,"2-chloro-1,1,1,3,3-pentafluoropropane",134251-06-2,193.95028109948748,ML
FC(F)OC(F)(F)C(F)Cl,"1,2",4.108446407719208,1108.0483,213.2,-28.19,77.83,C3H2ClF5O,enflurane,13838-16-9,206.31512980007903,ML
FC(F)(F)CC(F)(Cl)Cl,3,4.6750964077192085,1120.619,215.338,-53.51,40.86,C3H2Cl2F4,"1,1-dichloro-1,3,3,3-tetrafluoropropane",64712-27-2,203.8300617269956,ML
FCC(F)(F)C(F)(Cl)Cl,3,4.714656407719208,1287.5189,248.726,-53.51,42.99,C3H2Cl2F4,"1,1-dichloro-1,2,2,3-tetrafluoropropane",70192-63-1,200.00433213832412,ML
FC(F)C(F)(F)C(Cl)Cl,3,4.714656407719208,1287.5189,248.726,-53.51,42.99,C3H2Cl2F4,"1,1-dichloro-2,2,3,3-tetrafluoropropane",4071-01-6,211.9142273797523,ML
FCC(F)(Cl)C(F)(F)Cl,3,4.714656407719208,1287.5189,248.726,-53.51,42.99,C3H2Cl2F4,"1,2-dichloro-1,1,2,3-tetrafluoropropane",149329-26-0,186.37831665941306,ML
FC(F)C(F)(Cl)C(F)Cl,3,4.714656407719208,1287.5189,248.726,-53.51,42.99,C3H2Cl2F4,"1,2-dichloro-1,2,3,3-tetrafluoropropane",425-94-5,212.8819328784018,ML
FC(F)(Cl)C(F)(F)CCl,3,4.714656407719208,1287.5189,248.726,-53.51,42.99,C3H2Cl2F4,"1,3-dichloro-1,1,2,2-tetrafluoropropane",422-00-5,189.60185618044707,ML
FC(F)(Cl)CC(F)(F)Cl,3,4.714656407719208,1287.5189,248.726,-53.51,42.99,C3H2Cl2F4,"1,3-dichloro-1,1,3,3-tetrafluoropropane",76140-39-1,181.5710338052792,ML
FC(Cl)C(F)(F)C(F)Cl,3,4.714656407719208,1287.5189,248.726,-53.51,42.99,C3H2Cl2F4,"1,3-dichloro-1,2,2,3-tetrafluoropropane",70341-81-0,204.51312769731987,ML
FC(F)C(Cl)(Cl)C(F)F,3,4.714656407719208,1287.5189,248.726,-53.51,42.99,C3H2Cl2F4,"2,2-dichloro-1,1,3,3-tetrafluoropropane",17705-30-5,228.9304501206999,ML
FCC(Cl)(Cl)C(F)(F)F,3,4.714656407719208,1287.5189,248.726,-53.51,42.99,C3H2Cl2F4,"2,2-dichloro-1,1,1,3-tetrafluoropropane",149329-24-8,224.5444610678377,ML
FC(F)(F)C(F)(Cl)CCl,3,4.714656407719208,1287.5189,248.726,-53.51,42.99,C3H2Cl2F4,"2,3-dichloro-1,1,1,2-tetrafluoropropane",149329-25-9,201.9301337715084,ML
FC(Cl)C(Cl)C(F)(F)F,3,4.714656407719208,1287.5189,248.726,-53.51,42.99,C3H2Cl2F4,"2,3-dichloro-1,1,1,3-tetrafluoropropane",146916-90-7,215.72398366626885,ML
FC(F)(F)CC(Cl)(Cl)Cl,3,8.944656407719208,2534.4983,214.193,19.93,79.03,C3H2Cl3F3,"1,1,1-trichloro-3,3,3-trifluoropropane",7125-84-0,282.69,Yaw
FCC(F)(F)C(Cl)(Cl)Cl,3,4.483606407719209,1370.1805,236.438,-21.15,91.15,C3H2Cl3F3,"1,1,1-trichloro-2,2,3-trifluoropropane",131211-71-7,245.96329900082165,ML
FC(Cl)(Cl)C(F)(F)CCl,3,4.483606407719209,1370.1805,236.438,-21.15,91.15,C3H2Cl3F3,"1,1,3-trichloro-1,2,2-trifluoropropane",421-99-8,223.81393926296917,ML
FC(F)(F)C(Cl)(Cl)CCl,3,4.483606407719209,1370.1805,236.438,-21.15,91.15,C3H2Cl3F3,trichlorotrifluoropropane,134237-40-4,251.29711166769326,ML
FC(Cl)C(F)(F)C(Cl)Cl,3,4.483606407719209,1370.1805,236.438,-21.15,91.15,C3H2Cl3F3,"1,1,3-trichloro-2,2,3-trifluoropropane",131221-36-8,231.00566727731453,ML
ClC=C(Cl)C(Cl)Cl,3,5.0660964077192085,1785.3441,211.028,45.97,163.65,C3H2Cl4,"1,2,3,3-tetrachloro-1-propene",20589-85-9,267.0063863699031,ML
ClCC(Cl)=C(Cl)Cl,3,5.355886407719209,1879.6508,209.569,50.17,162.28,C3H2Cl4,"1,1,2,3-tetrachloropropene",10436-39-2,267.52600201257263,ML
FC(F)(Cl)C(Cl)(Cl)CCl,2,4.607636407719209,1550.1417,223.858,15.05,140.45,C3H2Cl4F2,tetrachlorodifluoropropane,134237-39-1,257.4409963078528,ML
FC(F)(C(Cl)Cl)C(Cl)Cl,2,4.607636407719209,1550.1417,223.858,15.05,140.45,C3H2Cl4F2,"1,1,3,3-tetrachloro-2,2-difluoropropane",1112-14-7,252.44239923799014,ML
FC(F)(CCl)C(Cl)(Cl)Cl,2,4.607636407719209,1550.1417,223.858,15.05,140.45,C3H2Cl4F2,"1,1,1,3-tetrachloro-2,2-difluoropropane",677-54-3,264.12146705577175,ML
FC(Cl)(Cl)C(Cl)(Cl)CCl,3,4.957906407719209,1815.161,211.334,54.09,178.45,C3H2Cl5F,pentachlorofluoropropane,134190-48-0,283.56091075690415,ML
C=C(F)C(F)(F)F,"1,2",4.612986407719209,1088.4413,264.251,-96.64,94.7,C3H2F4,"2,3,3,3-tetrafluoropropene",754-12-1,120.91,Yaw
FC=CC(F)(F)F,"1,2",4.637406407719209,1137.7051,261.332,-86.79,109.37,C3H2F4,"1,3,3,3-tetrafluoropropene",1645-83-6,168.62,Yaw
FCC(F)(F)C(F)(F)F,"1,2",4.180126407719209,864.8229,208.329,-65.64,18.18,C3H2F6,"1,1,1,2,2,3-hexafluoropropane",677-56-5,174.77,Yaw
FC(F)C(F)C(F)(F)F,"1,2",5.237136407719209,1364.2566,254.327,-62.66,139.29,C3H2F6,"1,1,1,2,3,3-hexafluoropropane",431-63-0,170.0,Yaw
FC(F)(F)CC(F)(F)F,"1,2",3.9292464077192086,833.4205,213.597,-70.15,124.92,C3H2F6,"1,1,1,3,3,3-hexafluoropropane",690-39-1,179.6,Yaw
FC(F)C(F)(F)C(F)F,2,4.574406407719208,942.7107,206.38,-60.34,28.07,C3H2F6,"1,1,2,2,3,3-hexafluoropropane",680-00-2,174.77,Yaw
OC(C(F)(F)F)C(F)(F)F,"1,2",5.481946407719208,1637.2498,239.662,-17.29,76.35,C3H2F6O,"1,1,1,3,3,3-hexafluoro-2-propanol",920-66-1,271.15,Yaw
FC(F)OC(F)C(F)(F)F,"1,2",4.9361464077192085,1347.1886,249.573,-51.95,41.08,C3H2F6O,"1,2,2,2-tetrafluoroethyl difluoromethyl ether",57041-67-5,233.19432597834088,ML
O=S(OCC(F)(F)F)C(F)(F)F,3,5.3192864077192095,1931.0,273.15,-4.96,111.65,C3H2F6O2S,"trifluoromethane-sulfinic acid, 2,2,2-trifluoroethyl ester",30957-44-9,280.412353264328,ML
FC(F)(F)[Se]C[Se]C(F)(F)F,3,4.865186407719209,1850.0,273.15,-0.15,132.18,C3H2F6Se2,bis[(trifluoromethyl)-seleno] methane,691-25-8,243.0205800993432,ML
C=Cc1ccc[nH]1,3,5.455186407719209,2023.0,273.15,2.61,119.35,C3H2F8N2S,"S,S-difluoro-N-[1-amino-2,2,2-trifluoro-1-(trifluoromethyl)ethyl",2433-66-1,236.06044700858158,ML
N#CCC#N,"1,2",4.867376407719209,2272.2242,246.777,89.94,250.82,C3H2N2,malononitrile,109-77-3,304.9,Yaw
C#CC=O,"1,2",4.838436407719208,1442.9882,239.384,-24.63,80.15,C3H2O,2-propynal,624-67-9,200.97395906320727,ML
C#CC(=O)O,3,4.801756407719209,1835.3724,207.485,67.0,200.0,C3H2O2,2-propynoic acid,471-25-0,282.15,Yaw
CC(F)(Cl)C(F)(F)F,3,4.534956407719209,1201.385,252.964,-65.71,30.79,C3H3ClF4,"2-chloro-1,1,1,2-tetrafluoropropane",421-73-8,171.19963939884883,ML
FC(F)C(F)(F)CCl,3,4.534956407719209,1201.385,252.964,-65.71,30.79,C3H3ClF4,"3-chloro-1,1,2,2-tetrafluoropropane",679-85-6,209.02528681209847,ML
CC(F)(F)C(F)(F)Cl,3,4.534956407719209,1201.385,252.964,-65.71,30.79,C3H3ClF4,"1-chloro-1,1,2,2-tetrafluoropropane",421-75-0,161.3685654027375,ML
FCC(F)(F)C(F)Cl,3,4.534956407719209,1201.385,252.964,-65.71,30.79,C3H3ClF4,"1-chloro-1,2,2,3-tetrafluoropropane",67406-66-0,188.34394750083547,ML
FC(F)C(Cl)C(F)F,3,4.534956407719209,1201.385,252.964,-65.71,30.79,C3H3ClF4,"2-chloro-1,1,3,3-tetrafluoropropane",19041-02-2,201.09632110319612,ML
FCC(Cl)C(F)(F)F,3,4.534956407719209,1201.385,252.964,-65.71,30.79,C3H3ClF4,"2-chloro-1,1,1,3-tetrafluoropropane",117970-90-8,185.8448456490611,ML
FC(F)C(F)C(F)Cl,3,4.534956407719209,1201.385,252.964,-65.71,30.79,C3H3ClF4,"3-chloro-1,1,2,3-tetrafluoropropane",---,187.37987821399213,ML
FCC(F)(Cl)C(F)F,3,4.534956407719209,1201.385,252.964,-65.71,30.79,C3H3ClF4,"2-chloro-1,2,3,3-tetrafluoropropane",---,189.09076911496678,ML
FC(CCl)C(F)(F)F,3,4.534956407719209,1201.385,252.964,-65.71,30.79,C3H3ClF4,"3-chloro-1,1,1,2-tetrafluoropropane",---,185.64945922710308,ML
FCC(F)C(F)(F)Cl,3,4.534956407719209,1201.385,252.964,-65.71,30.79,C3H3ClF4,"1-chloro-1,1,2,3-tetrafluoropropane",---,172.55205566608834,ML
FC(Cl)CC(F)(F)F,3,4.534956407719209,1201.385,252.964,-65.71,30.79,C3H3ClF4,"3-chloro-1,1,1,3-tetrafluoropropane",134190-50-4,189.10042040611577,ML
FC(F)CC(F)(F)Cl,3,4.534956407719209,1201.385,252.964,-65.71,30.79,C3H3ClF4,"1-chloro-1,1,3,3-tetrafluoropropane",2730-64-5,175.72464893480196,ML
FC(F)(F)C(Cl)CCl,"1,2",4.609116407719209,1436.1505,234.839,-13.55,98.52,C3H3Cl2F3,"2,3-dichloro-1,1,1-trifluoropropane",338-75-0,209.08207696040395,ML
FC(F)(F)CC(Cl)Cl,2,4.673606407719209,1284.1784,214.359,-18.43,95.29,C3H3Cl2F3,"1,1-dichloro-3,3,3-trifluoropropane",460-69-5,221.32935136997378,ML
CC(F)(F)C(F)(Cl)Cl,2,5.482006407719208,1621.624,235.395,-15.15,95.9,C3H3Cl2F3,"1,1-dichloro-1,2,2-trifluoropropane",7125-99-7,187.21042857662633,ML
FCC(F)(F)C(Cl)Cl,2,5.482006407719208,1621.624,235.395,-15.15,95.9,C3H3Cl2F3,"1,1-dichloro-2,2,3-trifluoropropane",70192-70-0,213.66744094821897,ML
FC(Cl)C(F)C(F)Cl,2,5.482006407719208,1621.624,235.395,-15.15,95.9,C3H3Cl2F3,"1,3-dichloro-1,2,3-trifluoropropane",151771-08-3,208.87302271003978,ML
FC(CCl)C(F)(F)Cl,2,5.482006407719208,1621.624,235.395,-15.15,95.9,C3H3Cl2F3,"1,3-dichloro-1,1,2-trifluoropropane",149329-27-1,199.3599330697135,ML
FC(Cl)C(F)(F)CCl,2,5.482006407719208,1621.624,235.395,-15.15,95.9,C3H3Cl2F3,"1,3-dichloro-1,2,2-trifluoropropane",67406-68-2,225.35789482467783,ML
CC(Cl)(Cl)C(F)(F)F,2,5.482006407719208,1621.624,235.395,-15.15,95.9,C3H3Cl2F3,dichlorotrifluoropropane,134237-43-7,222.10247089808124,ML
CC(Cl)=C(Cl)Cl,2,3.9843764077192088,1378.4963,223.26,11.77,150.99,C3H3Cl3,"1,1,2-trichloro-1-propene",21400-25-9,243.15,Yaw
ClC=C(Cl)CCl,2,5.075026407719209,1721.9762,216.588,30.97,169.73,C3H3Cl3,"1,2,3-trichloropropene",96-19-5,243.15,Yaw
C=CC(Cl)(Cl)Cl,2,3.856076407719209,1337.8628,224.233,8.97,152.09,C3H3Cl3,"3,3,3-trichloro-1-propene",2233-00-3,243.15,Yaw
ClCC=C(Cl)Cl,"1,2",4.1798364077192085,1467.3039,219.493,22.61,158.79,C3H3Cl3,"1,1,3-trichloro-1-propene",2567-14-8,243.15,Yaw
CC(Cl)(Cl)C(F)(F)Cl,3,4.345396407719209,1419.4013,229.682,-1.71,121.28,C3H3Cl3F2,trichlorodifluoropropane,134237-42-6,243.27826586741995,ML
CC(Cl)(Cl)C(F)(Cl)Cl,2,4.946786407719209,1751.3772,217.144,39.37,163.93,C3H3Cl4F,tetrachlorofluoropropane,134190-49-1,303.2098257640609,ML
ClCC(Cl)C(Cl)(Cl)Cl,2,3.7500264077192087,1487.2921,206.163,57.97,225.06,C3H3Cl5,"1,1,1,2,3-pentachloropropane",21700-31-2,265.02731175022274,ML
ClC(Cl)C(Cl)C(Cl)Cl,"1,2",4.111656407719209,1643.8075,200.742,73.57,230.63,C3H3Cl5,"1,1,2,3,3-pentachloropropane",15104-61-7,283.50075591269973,ML
ClCC(Cl)(Cl)C(Cl)Cl,2,4.130166407719209,1624.569,202.897,67.37,222.45,C3H3Cl5,"1,1,2,2,3-pentachloropropane",16714-68-4,267.3810589525685,ML
C=CC(F)(F)F,"1,2",3.5598264077192088,863.7582,260.79,-102.52,105.44,C3H3F3,"3,3,3-trifluoropropene",677-21-4,139.41389932338245,ML
CCOS(=O)C(F)(F)F,3,5.119256407719208,1893.0,273.15,-2.72,119.73,C3H3F3O2S,"trifluoromethane-sulfinic acid, ethyl ester",30957-43-8,227.53619301533436,ML
FC(I)CC(F)(F)F,3,4.561186407719209,1630.0,273.15,-20.12,109.47,C3H3F4I,"1,1,1,3-tetrafluoro-2-iodopropane",460-74-2,221.90852204523185,ML
FC(CI)C(F)(F)F,3,4.164186407719209,1486.0,273.15,-27.33,111.51,C3H3F4I,"1,1,1,2-tetrafluoro-3-iodopropane",1737-76-4,219.48206327854643,ML
CC(F)(F)C(F)(F)F,"1,2",3.930526407719209,805.4062,223.161,-84.57,-1.25,C3H3F5,"1,1,1,2,2-pentafluoropropane",1814-88-6,149.8869289089986,ML
FCC(F)C(F)(F)F,3,5.082746407719209,1286.7964,256.94,-72.15,12.17,C3H3F5,"1,1,1,2,3-pentafluoropropane",431-31-2,161.28105509342922,ML
FC(F)CC(F)(F)F,"1,2",5.030586407719209,1343.1435,251.855,-57.52,154.01,C3H3F5,"1,1,1,3,3-pentafluoropropane",460-73-1,171.05,Yaw
FCC(F)(F)C(F)F,"1,2",5.302776407719209,1453.4713,248.836,-46.5,134.42,C3H3F5,"1,1,2,2,3-pentafluoropropane",679-86-7,191.5,Yaw
FC(F)C(F)C(F)F,3,8.202746407719209,2012.1957,249.078,-49.53,5.57,C3H3F5,"1,1,2,3,3-pentafluoropropane",24270-66-4,174.59585699288118,ML
OCC(F)(F)C(F)(F)F,"1,2",3.8920364077192087,965.38,167.04,-0.15,101.79,C3H3F5O,"2,2,3,3,3-pentafluoro-1-propanol",422-05-9,243.5536858871517,ML
FCC(F)(F)OC(F)F,3,4.304556407719208,1165.0282,254.51,-66.16,36.49,C3H3F5O,"difluoromethyl 1,1,2-trifluoroethyl ether",69948-24-9,187.81855193176114,ML
C[Se]C(F)(F)C(F)(F)F,3,5.229286407719208,1666.0,273.15,-39.15,64.9,C3H3F5Se,methyl pentafluoroethyl selenide,6123-56-4,216.84071229616268,ML
COP(C(F)(F)F)C(F)(F)F,3,5.759796407719209,2115.0,273.15,-15.15,114.3,C3H3F6O2P,methyl bis(trifluoromethyl)-phosphinite,25439-11-6,224.88209250787304,ML
FC(F)(F)C(F)(F)C(F)(F)[SiH2][SeH],3,4.952186407719209,1729.0,273.15,-40.15,98.59,C3H3F7SeSi,heptafluoropropyl-selenyl silane,1647-59-2,231.43434238214437,ML
CC#CI,3,4.087316407719209,1395.6734,225.484,8.37,143.13,C3H3I,1-iodo-1-propyne,624-66-8,267.4694352098011,ML
C#CCI,3,4.2924964077192085,1459.7668,224.094,12.37,141.63,C3H3I,3-iodo-1-propyne,659-86-9,287.9688328623448,ML
C=CC#N,"1,2",4.527526407719209,1477.2856,248.44,-17.91,101.09,C3H3N,acrylonitrile,107-13-1,189.63,Yaw
c1cocn1,"1,2",4.400666407719209,1351.5928,237.583,-22.41,92.1,C3H3NO,oxazole,288-42-6,191.15,Yaw
c1cscn1,"1,2",4.390836407719209,1498.4197,223.26,15.66,143.12,C3H3NS,thiazole,288-47-1,239.53,Yaw
C#CC,"1,2",4.275996407719209,923.3106,241.079,-102.65,129.23,C3H4,methylacetylene,74-99-7,170.5,Yaw
C=C=C,"1,2",3.663826407719209,674.8483,217.342,-95.63,120.85,C3H4,allene,463-49-0,136.87,Yaw
C1=CC1,3,127.89444640771922,500000.0,3943.492,-94.0,-24.55,C3H4,cyclopropene,2781-85-3,130.14206779074507,ML
CC=C(Br)Br,2,3.693926407719209,1341.7526,221.314,19.37,174.14,C3H4Br2,"1,1-dibromo-1-propene",13195-80-7,231.1739479122888,ML
Br/C=C\CBr,2,4.247936407719209,1524.6805,217.005,31.77,169.29,C3H4Br2,"cis-1,3-dibromo-1-propene",32121-06-5,237.76326193996564,ML
Br/C=C/CBr,2,4.247936407719209,1524.6805,217.005,31.77,169.29,C3H4Br2,"trans-1,3-dibromo-1-propene",32121-07-6,247.20407079288557,ML
C=C(Br)CBr,"1,2",4.479936407719209,1685.0562,235.084,29.83,168.15,C3H4Br2,"2,3-dibromo-1-propene",513-31-5,237.23298074372664,ML
BrC=CCBr,2,4.917346407719209,1744.4451,212.835,43.77,183.09,C3H4Br2,"1,3-dibromo-1-propene",627-15-6,252.31094359194685,ML
CC(Br)C(Br)(Br)Br,3,4.870626407719208,2106.0053,186.564,125.37,274.31,C3H4Br4,"1,1,1,2-tetrabromopropane",62127-49-5,283.85,Yaw
BrCCC(Br)(Br)Br,3,5.304426407719209,2278.8291,183.784,133.37,271.67,C3H4Br4,"1,1,1,3-tetrabromopropane",62127-50-8,283.85,Yaw
CC(Br)(Br)C(Br)Br,3,4.318176407719209,1885.14,190.734,113.37,278.54,C3H4Br4,"1,1,2,2-tetrabromopropane",34570-59-7,283.85,Yaw
BrCC(Br)C(Br)Br,3,5.545326407719209,2374.6134,182.394,137.37,270.41,C3H4Br4,"1,1,2,3-tetrabromopropane",34581-76-5,283.85,Yaw
BrC(Br)CC(Br)Br,3,6.0846764077192095,2588.6585,179.614,145.37,267.97,C3H4Br4,"1,1,3,3-tetrabromopropane",51525-97-4,283.85,Yaw
BrCC(Br)(Br)CBr,3,4.870626407719208,2106.0053,186.564,125.37,274.31,C3H4Br4,"1,2,2,3-tetrabromopropane",54268-02-9,283.85,Yaw
FC(F)(F)CCCl,"1,2",4.022706407719209,1074.5183,221.263,-39.25,67.46,C3H4ClF3,"3-chloro-1,1,1-trifluoropropane",460-35-5,166.65,Yaw
FCC(F)(F)CCl,2,4.714266407719209,1351.8373,243.527,-38.55,65.27,C3H4ClF3,"1-chloro-2,2,3-trifluoropropane",56758-54-4,197.22322219328825,ML
CC(F)(F)C(F)Cl,2,4.714266407719209,1351.8373,243.527,-38.55,65.27,C3H4ClF3,"1-chloro-1,2,2-trifluoropropane",70192-76-6,173.96158805664336,ML
FCC(F)C(F)Cl,2,4.714266407719209,1351.8373,243.527,-38.55,65.27,C3H4ClF3,"1-chloro-1,2,3-trifluoropropane",---,182.7665110598974,ML
CC(F)C(F)(F)Cl,2,4.714266407719209,1351.8373,243.527,-38.55,65.27,C3H4ClF3,"1-chloro-1,1,2-trifluoropropane",26588-23-8,152.62300433527577,ML
FCCC(F)(F)Cl,2,4.714266407719209,1351.8373,243.527,-38.55,65.27,C3H4ClF3,"1-chloro-1,1,3-trifluoropropane",---,170.93433068604622,ML
FCC(F)(Cl)CF,2,4.714266407719209,1351.8373,243.527,-38.55,65.27,C3H4ClF3,"2-chloro-1,2,3-trifluoropropane",---,185.51131154838535,ML
CC(F)(Cl)C(F)F,2,4.714266407719209,1351.8373,243.527,-38.55,65.27,C3H4ClF3,"2-chloro-1,1,2-trifluoropropane",---,177.13898577190272,ML
FC(F)C(F)CCl,2,4.714266407719209,1351.8373,243.527,-38.55,65.27,C3H4ClF3,"3-chloro-1,1,2-trifluoropropane",---,195.96591067083887,ML