smiles,code,A [log10(atm)],B [C],C [C],TMIN [C],TMAX [C],FORMULA,NAME,CAS No,mp [K],mp_type
CCC(C)(C)N(C)C,2,4.913616407719209,1664.8409,223.26,21.77,137.67,C7H17N,"dimethyl-1,1-dimethylpropylamine",57757-60-5,181.98,Yaw
CC(C)C(C)N(C)C,2,4.879756407719209,1654.2507,223.441,21.25,137.85,C7H17N,"dimethyl-1,2-dimethylpropylamine",66225-38-5,181.98,Yaw
CN(C)CC(C)(C)C,2,4.879756407719209,1654.2507,223.441,21.25,137.85,C7H17N,"dimethyl-2,2-dimethylpropylamine",10076-31-0,181.98,Yaw
CCCCN(C)CC,"1,2",4.788866407719208,1630.7913,223.538,20.97,139.84,C7H17N,methylethylbutylamine,66225-40-9,181.98,Yaw
CCC(C)N(C)CC,2,4.217056407719209,1446.4165,227.43,9.77,141.93,C7H17N,methylethyl-sec-butylamine,66225-41-0,181.98,Yaw
CCN(C)CC(C)C,2,4.386876407719209,1499.7839,226.318,12.97,140.75,C7H17N,methylethylisobutylamine,60247-14-5,181.98,Yaw
CCN(C)C(C)(C)C,"1,2",4.787086407719209,1605.9925,225.484,15.37,132.51,C7H17N,methylethyl-tert-butylamine,52841-28-8,181.98,Yaw
CCCN(C)CCC,"1,2",4.818426407719208,1627.8775,224.345,18.65,136.01,C7H17N,methyldipropylamine,3405-42-3,181.98,Yaw
CCCN(C)C(C)C,2,4.655216407719209,1583.9545,224.692,17.65,139.09,C7H17N,methylpropylisopropylamine,66225-42-1,181.98,Yaw
CC(C)N(C)C(C)C,2,4.614646407719208,1571.2401,224.928,16.97,139.32,C7H17N,methyldiisopropylamine,10342-97-9,181.98,Yaw
CCCN(CC)CC,"1,2",4.785086407719208,1612.4688,224.928,16.97,134.67,C7H17N,diethylpropylamine,4458-31-5,181.98,Yaw
CCN(CC)C(C)C,"1,2",4.786696407719209,1600.6785,225.901,14.17,130.94,C7H17N,diethylisopropylamine,6006-15-1,181.98,Yaw
CCN(CC)CC(C)O,3,2.739346407719209,1244.819,211.862,14.71,298.66,C7H17NO,"1-(diethylamino)-2-propanol, ()",78738-36-0,286.65,Yaw
CCN(CC)C(C)CO,"1,2",4.874026407719208,1844.653,209.916,63.17,193.46,C7H17NO,2-(diethylamino)-1-propanol,611-12-1,260.52,Yaw
CCN(CC)CCCO,"1,2",4.9888164077192085,1960.2703,203.383,81.97,214.78,C7H17NO,3-(diethylamino)-1-propanol,622-93-5,260.52,Yaw
CC(C)CCNCCO,3,3.724356407719209,1644.8053,199.074,94.37,281.4,C7H17NO,2-[isopentylamino]ethanol,34240-76-1,260.52,Yaw
CCCCOCCCN,"1,2",5.164686407719209,1949.7733,207.97,68.77,192.92,C7H17NO,3-butoxypropylamine,16499-88-0,208.25,Yaw
CCC(N)C(O)C(C)C,3,3.1046464077192084,1393.9899,206.441,73.17,290.77,C7H17NO,4-amino-2-methyl-3-hexanol,63765-80-0,260.52,Yaw
CCN(CC)CC(O)CO,"1,2",5.997216407719209,2549.1926,191.012,132.57,256.51,C7H17NO2,"3-(diethylamino)-1,2-propanediol",621-56-7,243.25,Yaw
CC(C)(C)NCC(O)CO,3,3.3401864077192087,1546.3426,205.607,90.57,303.2,C7H17NO2,"(S)-3-tert-butylamino-1,2-propanediol",30315-46-9,360.15,Yaw
CCOP(=S)(OCC)SCSCC,3,6.644086407719209,3697.0,273.15,160.52,309.69,C7H17O2PS3,phorate,298-02-2,230.15,Yaw
CCN(CC)CCCN,3,3.963086407719208,1585.9823,209.221,28.9,223.86,C7H18N2,"N,N-diethyl-1,3-propanediamine",104-78-9,302.05,Yaw
NCCCCCCCN,"1,2",4.808696407719209,2009.2762,193.792,106.57,251.95,C7H18N2,"1,7-heptanediamine",646-19-5,302.05,Yaw
CN(C)CCCN(C)C,"1,2",4.723076407719208,1707.7819,216.032,28.9,170.16,C7H18N2,"N,N,N',N'-tetramethyl-1,3-propanediamine",110-95-2,302.05,Yaw
CCN(CC)CCNC,"1,2",4.796116407719208,1777.2071,212.001,28.9,183.37,C7H18N2,"N,N-diethyl-N'-methylethylenediamine",104-79-0,302.05,Yaw
CN(C)CC(C)(C)CN,"1,2",4.7956864077192085,1770.1213,212.557,28.9,181.27,C7H18N2,"N,N,2,2-tetramethyl-1,3-propanediamine",53369-71-4,302.05,Yaw
CCCCCCCNN,2,6.567356407719208,2300.6983,208.721,63.61,158.43,C7H18N2,heptyl hydrazine,2656-72-6,248.8306449627968,ML
FC(F)(F)C1(F)C(F)(F)C(F)(F)C(F)(F)C(F)(C(F)(F)F)C1(F)F,"1,2",3.921896407719209,1193.075,202.709,2.9,126.79,C8F16,"hexadecafluoro-1,3-dimethylcyclohexane; (cis+trans)",335-27-3,218.25,Yaw
FC(F)(F)C(F)(F)C(F)(F)C(F)(F)C(F)(F)C(F)(F)C(F)(F)C(F)(F)F,"1,2",4.951786407719209,1617.3727,226.624,10.09,121.14,C8F18,perfluorooctane,307-34-6,208.15,Yaw
O=S(N=C(C(F)(F)F)C(F)(F)F)(N=C(C(F)(F)F)C(F)(F)F)(C(F)(F)F)C(F)(F)F,3,4.639286407719209,2069.0,273.15,44.18,203.77,C8F18N2OS,"oxobis(trifluoro-methyl)bis[[2,2,2-trifluoro-1-(trifluoro-methyl)ethylidene]-amino]sulfur",900002-56-4,267.9174306126577,ML
FC(F)(F)C(F)(F)C(F)(F)C(F)(F)OC(F)(F)C(F)(F)C(F)(F)C(F)(F)F,3,7.319696407719208,2745.9848,273.15,25.31,118.09,C8F18O,perfluoro-n-dibutyl ether,308-48-5,173.25,Yaw
FC(F)(F)OC(F)(F)C(F)(F)C(F)(F)C(F)(F)C(F)(F)C(F)(F)OC(F)(F)F,3,4.606186407719209,1755.0,273.15,-2.61,134.5,C8F18O2,"dodecafluoro-1,6-bis(trifluoromethoxy)-hexane",900001-89-0,232.25962178529548,ML
FC(F)(F)C(F)(F)C(F)(F)C(F)(F)SSC(F)(F)C(F)(F)C(F)(F)C(F)(F)F,3,5.419286407719209,2345.0,273.15,48.08,185.01,C8F18S2,bis(nonafluorobutyl) disulfide,42060-69-5,248.15464537216124,ML
O=C(O)C(F)(F)C(F)(Cl)C(F)(F)C(F)(Cl)C(F)(F)C(F)(Cl)C(F)(F)Cl,3,6.6648664077192095,3686.6708,273.15,158.26,306.17,C8HCl4F11O2,"3,5,7,8-tetrachloro-2,2,3,4,4,5,6,6,7,8,8-undecafluorooctanoic acid",2923-68-4,349.1214336782855,ML
FC(F)(F)C(F)(F)C(F)(F)C=CC(F)(F)C(F)(F)C(F)(F)F,3,5.109286407719209,1930.0,273.15,2.95,128.24,C8H2F14,"1,1,1,2,2,3,3,6,6,7,7,8,8,8-tetradecafluoro-4-octene",3910-82-5,221.4204386475535,ML
FC(F)(F)c1ccc(Cl)c(C(F)(F)F)c1,3,5.094986407719208,1955.855,239.275,41.1,168.71,C8H3ClF6,"4-chloro-1,3-bis(trifluoromethyl)-benzene",327-76-4,255.68219682338395,ML
FC(F)(F)c1cc(Cl)cc(C(F)(F)F)c1,3,5.228926407719209,1986.637,246.153,1.85,156.99,C8H3ClF6,"5-chloro-1,3-bis(trifluormethyl)-benzene",328-72-3,251.62813930386596,ML
FC(F)(F)C(Cl)(Cl)c1ccc(Cl)c(Cl)c1,3,5.842966407719208,2986.557,273.15,113.52,265.75,C8H3Cl4F3,"1,1-dichloro-1-(3,4-dichlorophenyl)-2,2,2-trifluoroethane",328-82-5,321.45951186638155,ML
CC(=O)Oc1c(F)c(F)c(F)c(F)c1F,3,5.742466407719208,2513.57,273.15,56.57,188.78,C8H3F5O2,pentafluorophenyl acetate,19220-93-0,286.17489665429866,ML
OCC(F)(F)C(F)(F)C(F)(F)C(F)(F)C(F)(F)C(F)(F)C(F)(F)F,3,6.393686407719208,2795.0,273.15,64.63,185.6,C8H3F15O,"2,2,3,3,4,4,5,5,6,6,7,7,8,8,8-pentadecafluoro-1-octanol",307-30-2,318.65,Yaw
O=C(c1cccc(Cl)c1)C(F)(F)F,3,5.7033664077192086,2571.16,273.15,65.87,202.79,C8H4ClF3O,trifluoromethyl 3-chlorophenyl ketone,321-31-3,283.3210894275595,ML
O=C(Cl)c1cccc(C(=O)Cl)c1,3,4.200386407719209,1997.4229,184.006,144.45,328.24,C8H4Cl2O2,isophthaloyl chloride,99-63-8,317.0,Yaw
O=C(Cl)c1ccccc1C(=O)Cl,3,4.596706407719209,2450.5352,241.58,117.85,328.89,C8H4Cl2O2,"1,2-benzenedicarbonyl dichloride",88-95-9,288.65,Yaw
O=C(Cl)c1ccc(C(=O)Cl)cc1,3,3.854466407719209,2176.529,273.15,106.35,339.36,C8H4Cl2O2,"1,4-benzenedicarbonyl dichloride",100-20-9,356.65,Yaw
FC(F)(F)C(Cl)(Cl)c1cccc(Cl)c1,3,5.368036407719208,2591.036,273.15,84.29,238.2,C8H4Cl3F3,"1,1-dichloro-1-(3-chlorophenyl)2,2,2-trifluoroethane",309-12-6,303.44255385224386,ML
FC(F)(F)c1cccc(C(F)(F)F)c1,3,2.918516407719209,1131.8902,220.471,1.85,211.96,C8H4F6,"1,3-bis(trifluoromethyl)benzene",402-31-3,237.05166934762562,ML
FC(F)(F)c1ccc(C(F)(F)F)cc1,3,2.754856407719209,1035.5266,208.531,14.85,213.47,C8H4F6,"1,4-bis(trifluoromethyl)benzene",433-19-2,263.82747647483035,ML
O=C1OC(=O)c2ccccc21,"1,2",5.1704764077192085,2504.9439,200.421,154.83,314.0,C8H4O3,phthalic anhydride,85-44-9,404.26,Yaw
FC(F)(F)C(Cl)(Cl)c1ccccc1,3,5.405396407719209,2450.655,273.15,63.19,206.96,C8H5Cl2F3,"(1,1-dichloro-2,2,2-trifluoroethyl)benzene",309-10-4,283.04534650013426,ML
CCc1c(Cl)c(Cl)c(Cl)c(Cl)c1Cl,2,4.653076407719209,2610.7879,251.745,95.85,348.15,C8H5Cl5,pentachloroethyl-benzene,606-07-5,329.0,Yaw
O=C(c1ccccc1)C(F)(F)F,3,5.280466407719208,2250.27,273.15,41.08,178.76,C8H5F3O,"2,2,2-trifluoro-1-phenylethanone",434-45-7,233.15,Yaw
O=C(CC(=O)C(F)(F)F)c1cccs1,3,10.774786407719208,4536.6,273.15,85.32,159.99,C8H5F3O2S,2-thenoyltrifluoroacetone,326-91-0,315.15,Yaw
C#Cc1ccccc1,3,5.474286407719209,1795.3995,201.512,42.59,145.54,C8H6,ethynylbenzene,536-74-3,228.3,Yaw
N#CCc1ccccc1Br,3,5.148526407719208,2160.23,191.082,84.85,254.56,C8H6BrN,2-bromobenzeneacetonitrile,19472-74-3,274.15,Yaw
C=Cc1cc(Cl)ccc1Cl,3,4.6410564077192085,2145.2898,231.805,55.85,262.5,C8H6Cl2,"2,5-dichlorostyrene",1123-84-8,281.15,Yaw
ClC=C(Cl)c1ccccc1,3,4.111466407719209,1743.0593,193.514,97.37,263.93,C8H6Cl2,"2,6-dichlorostyrene",6607-45-0,321.65,Yaw
ClC(Cl)=Cc1ccccc1,3,4.111466407719209,1743.0593,193.514,97.37,263.93,C8H6Cl2,"(2,2-dichlorovinyl)benzene",698-88-4,321.65,Yaw
C=Cc1cccc(Cl)c1Cl,3,4.831536407719208,2260.8325,237.496,60.85,261.53,C8H6Cl2,"1,2-dichloro-3-vinylbenzene",2123-28-6,321.65,Yaw
C=Cc1ccc(Cl)c(Cl)c1,3,4.710696407719209,2194.6784,235.456,56.85,262.24,C8H6Cl2,"1,2-dichloro-4-vinylbenzene",2039-83-0,321.65,Yaw
C=Cc1c(Cl)cccc1Cl,3,4.561566407719209,2135.2356,237.656,89.0,263.51,C8H6Cl2,"1,3-dichloro-2-vinylbenzene",28469-92-3,362.15,Yaw
C=Cc1cc(Cl)cc(Cl)c1,3,4.737986407719209,2229.9447,240.216,96.69,262.37,C8H6Cl2,"1,3-dichloro-5-vinylbenzene",2155-42-2,321.65,Yaw
C=Cc1ccc(Cl)cc1Cl,3,4.657656407719209,2171.3471,235.752,52.85,262.65,C8H6Cl2,"2,4-dichloro-1-vinylbenzene",2123-27-5,321.65,Yaw
O=C(Cl)c1cccc(CCl)c1,3,4.863026407719208,2644.6112,273.15,119.0,306.56,C8H6Cl2O,3-(chloromethyl)benzoyl chloride,63024-77-1,291.5407268436241,ML
O=C(Cl)c1ccc(CCl)cc1,3,5.981746407719209,3252.9941,273.15,140.58,299.49,C8H6Cl2O,4-(chloromethyl)benzoyl chloride,876-08-4,304.15,Yaw
ClC(Cl)c1ccc(C(Cl)Cl)cc1,2,4.102136407719208,1855.6071,180.059,130.09,308.12,C8H6Cl4,"1,4-bis(dichloromethyl)benzene",7398-82-5,282.65,Yaw
ClC(Cl)c1ccccc1C(Cl)Cl,"1,2",4.055276407719209,1838.697,180.059,88.4,309.71,C8H6Cl4,"a,a,a',a'-tetrachloro-o-xylene",25641-99-0,361.55,Yaw
CCc1c(Cl)cc(Cl)c(Cl)c1Cl,2,5.041266407719209,2713.4875,265.963,126.04,306.47,C8H6Cl4,"1,2,3,5-tetrachloro-4-ethylbenzene",61911-56-6,331.38156187495207,ML
CC(OS(=O)OC(C)(C(F)(F)F)C(F)(F)F)(C(F)(F)F)C(F)(F)F,3,5.459286407719208,2448.0,273.15,60.36,201.43,C8H6F12O3S,"bis[1,1-bis(trifluoro-methyl)ethyl]sulfite",---,310.4334460199855,ML
c1ccc(-c2c[se]nn2)cc1,3,9.46408640771921,4735.6,273.15,144.27,243.66,C8H6N2Se,"4-phenyl-1,2,3-selenadiazole",25660-64-4,370.4172862875352,ML
c1ccc2occc2c1,"1,2",4.3030764077192085,1689.1684,218.549,54.61,203.53,C8H6O,benzofuran,271-89-6,279.25572977014554,ML
c1ccc2sccc2c1,3,4.734696407719208,1990.133,212.993,87.83,235.87,C8H6S,benzothiophene,95-15-8,304.5,Yaw
C=Cc1ccccc1Br,3,5.2999064077192095,2100.8896,195.0,97.57,225.27,C8H7Br,1-bromo-2-vinylbenzene,2039-88-5,220.35,Yaw
C=Cc1ccccc1Cl,"1,2",4.357846407719209,1807.7732,226.082,63.69,219.53,C8H7Cl,2-chlorostyrene,2039-87-4,210.05,Yaw
C=Cc1cccc(Cl)c1,"1,2",4.594106407719209,1935.851,231.527,67.45,219.4,C8H7Cl,3-chlorostyrene,2039-85-2,249.75,Yaw
C=Cc1ccc(Cl)cc1,"1,2",7.113446407719209,4217.1226,400.788,68.08,218.25,C8H7Cl,4-chlorostyrene,1073-67-2,289.05,Yaw
C=C(Cl)c1ccccc1,2,4.3256464077192085,1690.0949,200.742,71.57,219.2,C8H7Cl,(1-chlorovinyl)benzene,618-34-8,250.15,Yaw
Cl/C=C\c1ccccc1,2,4.167986407719209,1633.506,201.945,68.11,220.48,C8H7Cl,(cis-2-chlorovinyl)benzene,4604-28-8,249.75,Yaw
Cl/C=C/c1ccccc1,2,4.3256464077192085,1690.0949,200.742,71.57,219.2,C8H7Cl,(trans-2-chlorovinyl)benzene,4110-77-4,249.75,Yaw
ClC=Cc1ccccc1,2,4.167986407719209,1633.506,201.945,68.11,220.48,C8H7Cl,chlorostyrene,1331-28-8,249.75,Yaw
O=C(Cl)Cc1ccccc1,3,4.596396407719209,1974.0137,215.24,89.52,244.33,C8H7ClO,benzeneacetyl chloride,103-80-0,269.0261815116246,ML
CC(=O)c1ccc(Cl)cc1,3,5.276526407719208,2154.035,194.0,106.95,238.93,C8H7ClO,1-(4-chlorophenyl)ethanone,99-91-2,293.15,Yaw
O=C(CF)c1ccccc1,3,6.847716407719208,3236.4,273.15,97.63,221.21,C8H7FO,2-fluoro-1-phenylethanone,450-95-3,302.15,Yaw
c1ccc2[nH]ccc2c1,"1,2",4.256186407719208,1841.3421,178.577,121.46,286.98,C8H7N,indole,120-72-9,326.15,Yaw
N#CCc1ccccc1,"1,2",4.654346407719209,2116.151,221.811,102.0,264.29,C8H7N,benzeneacetonitrile,140-29-4,249.35,Yaw
Cc1ccccc1C#N,"1,2",4.166946407719209,1683.9643,199.074,79.37,236.52,C8H7N,2-methylbenzonitrile,529-19-1,259.65,Yaw
Cc1cccc(C#N)c1,"1,2",4.140486407719209,1701.7426,196.85,85.77,246.37,C8H7N,3-methylbenzonitrile,620-22-4,250.15,Yaw
Cc1ccc(C#N)cc1,"1,2",4.161356407719208,1720.2557,195.738,88.97,249.89,C8H7N,4-methylbenzonitrile,104-85-8,302.65,Yaw
COC(=O)c1ccccc1[N+](=O)[O-],3,5.973686407719208,4177.6754,385.107,146.78,351.35,C8H7NO4,methyl 2-nitrobenzoate,606-27-9,260.15,Yaw
Cc1nc2ccccc2s1,3,5.782006407719209,2831.45,251.7,117.8,264.9,C8H7NS,2-methylbenzothiazole,120-75-2,287.15,Yaw
C=Cc1ccccc1,"1,2",4.040166407719209,1437.8521,210.039,32.8,174.5,C8H8,styrene,100-42-5,242.47,Yaw
C1=CC=CC=CC=C1,3,4.477746407719208,1534.3045,212.343,28.95,155.0,C8H8,"1,3,5,7-cyclooctatetraene",629-20-9,266.16,Yaw
C#CC=CC=CC=C,3,10.24806640771921,6934.3326,546.34,25.38,150.79,C8H8,"1,3,5-octatrien-7-yne",20023-57-8,283.7293805661132,ML
BrCc1ccccc1CBr,2,4.221256407719209,1878.7183,182.864,125.02,296.37,C8H8Br2,"1,2-bis(bromomethyl)benzene",91-13-4,368.15,Yaw
BrCc1cccc(CBr)c1,2,4.221256407719209,1878.7183,182.864,125.02,296.37,C8H8Br2,"1,3-bis(bromomethyl)benzene",626-15-3,350.15,Yaw
Cc1ccc(Br)c(Br)c1C,2,4.566296407719209,2014.9059,179.058,133.47,293.34,C8H8Br2,"1,2-dibromo-3,4-dimethylbenzene",24932-49-8,280.15,Yaw
Cc1cc(C)c(Br)cc1Br,2,3.883436407719208,1736.7988,185.035,116.27,299.78,C8H8Br2,"1,5-dibromo-2,4-dimethylbenzene",615-87-2,343.15,Yaw
BrCC(Br)c1ccccc1,2,4.221256407719209,1878.7183,182.864,125.02,296.37,C8H8Br2,"(1,2-dibromoethyl)benzene",93-52-7,348.15,Yaw
Cc1cc(Br)c(C)cc1Br,"1,2",4.075356407719209,1811.7266,183.506,120.67,296.51,C8H8Br2,"1,4-dibromo-2,5-dimethylbenzene",1074-24-4,346.65,Yaw
Cc1cc(Br)c(Br)cc1C,"1,2",4.096556407719208,1871.372,178.766,134.31,314.28,C8H8Br2,"1,2-dibromo-4,5-dimethylbenzene",24932-48-7,350.58,Yaw
CCc1cccc(Br)c1Br,2,4.221256407719209,1878.7183,182.864,125.02,296.37,C8H8Br2,ethyl dibromobenzene,30812-87-4,350.58,Yaw
ClCc1ccccc1CCl,"1,2",4.092916407719208,1755.9981,189.483,104.47,273.61,C8H8Cl2,"1,2-bis(chloromethyl)benzene",612-12-4,328.15,Yaw
ClCc1cccc(CCl)c1,"1,2",4.077506407719208,1788.7901,186.147,114.07,287.52,C8H8Cl2,"1,3-bis(chloromethyl)benzene",626-16-4,307.35,Yaw
ClCc1ccc(CCl)cc1,2,4.8961464077192085,2031.1736,186.147,113.57,255.88,C8H8Cl2,"1,4-bis(chloromethyl)benzene",623-25-6,373.15,Yaw
Cc1ccc(Cl)c(Cl)c1C,"1,2",3.998576407719209,1702.1794,191.846,97.67,268.51,C8H8Cl2,"1,2-dichloro-3,4-dimethylbenzene",68266-67-1,282.15,Yaw
Cc1cc(Cl)c(C)c(Cl)c1,2,3.875246407719208,1639.4316,194.348,90.47,264.33,C8H8Cl2,"1,3-dichloro-2,5-dimethylbenzene",38204-89-6,288.15,Yaw
Cc1cc(Cl)c(C)cc1Cl,"1,2",4.071216407719208,1695.2459,194.348,71.0,255.3,C8H8Cl2,"1,4-dichloro-2,5-dimethylbenzene",1124-05-6,344.15,Yaw
Cc1cc(C)c(Cl)cc1Cl,2,3.904946407719208,1650.9113,194.07,68.5,264.02,C8H8Cl2,"1,5-dichloro-2,4-dimethylbenzene",2084-45-9,341.65,Yaw
Cc1ccc(C)c(Cl)c1Cl,2,4.122956407719209,1735.0542,192.124,96.87,261.85,C8H8Cl2,"2,3-dichloro-1,4-dimethylbenzene",34840-79-4,272.15,Yaw
ClCC(Cl)c1ccccc1,2,4.239046407719209,1779.7868,191.151,99.67,260.8,C8H8Cl2,"(1,2-dichloroethyl)benzene",1074-11-9,317.62,Yaw
CCc1cc(Cl)ccc1Cl,"1,2",3.974566407719209,1641.738,196.711,44.47,250.2,C8H8Cl2,"1,4-dichloro-2-ethylbenzene",54484-63-8,317.62,Yaw
Cc1ccc(C(Cl)Cl)cc1,2,3.613916407719208,1537.5331,196.744,83.08,267.36,C8H8Cl2,1-(dichloromethyl)-4-methylbenzene,23063-36-7,321.65,Yaw
CCc1cccc(Cl)c1Cl,2,3.613916407719208,1537.5331,196.744,83.08,267.36,C8H8Cl2,ethyldichlorobenzene,1331-29-9,317.62,Yaw
OCCOc1ccc(Cl)cc1Cl,3,3.138886407719209,1436.7427,160.37,125.85,345.91,C8H8Cl2O2,"2-(2,4-dichlorophenoxy)-ethanol",120-67-2,327.0,Yaw
CC(=O)c1ccccc1,"1,2",4.517966407719209,1901.1925,218.697,78.42,232.15,C8H8O,acetophenone,98-86-2,292.81,Yaw
Cc1ccc(C=O)cc1,"1,2",4.421676407719208,1808.182,204.386,82.51,234.42,C8H8O,p-tolualdehyde,104-87-0,277.7672473992707,ML
Cc1ccccc1C=O,"1,2",4.559726407719209,1824.9665,200.186,83.17,228.34,C8H8O,2-methylbenzaldehyde,529-20-4,262.8378138026997,ML
COC(=O)c1ccccc1,"1,2",4.439886407719209,1825.1625,211.583,77.18,229.4,C8H8O2,methyl benzoate,93-58-3,260.75,Yaw
Cc1ccccc1C(=O)O,"1,2",4.705576407719208,2036.9003,174.019,103.7,288.43,C8H8O2,o-toluic acid,118-90-1,376.85,Yaw
CC(=O)Oc1ccccc1,"1,2",5.1106264077192085,2244.7365,243.229,77.84,223.49,C8H8O2,phenyl acetate,122-79-2,289.3404633701188,ML
COc1ccc(C=O)cc1,"1,2",4.927826407719208,2337.1675,226.279,116.99,278.86,C8H8O2,4-methoxybenzaldehyde,123-11-5,273.15,Yaw
COc1cc(C=O)ccc1O,"1,2",4.936736407719208,2260.0592,172.954,158.55,314.58,C8H8O3,vanillin,121-33-5,355.0,Yaw
COC(=O)c1ccccc1O,"1,2",4.859576407719208,2132.817,216.889,99.53,250.98,C8H8O3,methyl salicylate,119-36-8,265.15,Yaw
Cc1cccc(Br)c1C,"1,2",4.130266407719208,1695.9809,196.572,85.57,246.33,C8H9Br,"1-bromo-2,3-dimethylbenzene",576-23-8,252.66,Yaw
Cc1ccc(Br)c(C)c1,"1,2",3.845966407719208,1588.8631,199.074,78.37,249.13,C8H9Br,"1-bromo-2,4-dimethylbenzene",583-70-0,256.15,Yaw
Cc1cc(C)cc(Br)c1,"1,2",4.117956407719209,1661.1934,199.352,77.57,235.87,C8H9Br,"1-bromo-3,5-dimethylbenzene",556-96-7,252.66,Yaw
Cc1cccc(C)c1Br,"1,2",4.037466407719209,1637.3583,199.491,77.17,238.72,C8H9Br,"2-bromo-1,3-dimethylbenzene",576-22-7,252.66,Yaw
Cc1ccc(C)c(Br)c1,"1,2",4.095336407719208,1639.3311,200.742,73.57,231.31,C8H9Br,"2-bromo-1,4-dimethylbenzene",553-94-6,282.15,Yaw
Cc1ccc(Br)cc1C,"1,2",4.130876407719208,1697.7208,196.433,85.97,246.85,C8H9Br,"4-bromo-1,2-dimethylbenzene",583-71-1,272.95,Yaw
CC(Br)c1ccccc1,2,4.035656407719209,1632.2262,199.908,75.97,237.14,C8H9Br,"(1-bromoethyl)benzene, ()",38661-81-3,252.66,Yaw
BrCCc1ccccc1,"1,2",4.8257864077192085,1909.7203,195.182,89.57,226.88,C8H9Br,(2-bromoethyl)benzene,103-63-9,217.25,Yaw
CCc1ccccc1Br,"1,2",4.112036407719208,1644.8505,200.659,73.81,230.95,C8H9Br,1-bromo-2-ethylbenzene,1973-22-4,205.25,Yaw
CCc1cccc(Br)c1,"1,2",4.051186407719209,1636.5094,199.908,75.97,236.48,C8H9Br,1-bromo-3-ethylbenzene,2725-82-8,252.66,Yaw
CCc1ccc(Br)cc1,"1,2",4.117956407719209,1661.1934,199.352,77.57,235.87,C8H9Br,1-bromo-4-ethylbenzene,1585-07-5,229.65,Yaw
Cc1ccccc1CBr,"1,2",4.108426407719208,1699.1971,195.738,87.97,250.55,C8H9Br,1-(bromomethyl)-2-methylbenzene,89-92-9,294.15,Yaw
Cc1cccc(CBr)c1,"1,2",4.128446407719209,1690.7615,196.989,84.37,244.76,C8H9Br,1-(bromomethyl)-3-methylbenzene,620-13-3,252.66,Yaw
Cc1ccc(CBr)cc1,"1,2",4.169626407719209,1726.0356,194.904,90.37,251.26,C8H9Br,1-(bromomethyl)-4-methylbenzene,104-81-4,308.15,Yaw
Cc1cccc(Cl)c1C,2,4.1215364077192085,1618.055,203.8,65.77,219.72,C8H9Cl,"1-chloro-2,3-dimethylbenzene",608-23-1,231.2,Yaw
Cc1ccc(Cl)c(C)c1,2,3.9859264077192087,1569.2488,204.912,62.57,220.95,C8H9Cl,"1-chloro-2,4-dimethylbenzene",95-66-9,240.65,Yaw
Cc1cccc(C)c1Cl,"1,2",4.266326407719209,1650.6692,204.356,64.17,211.92,C8H9Cl,"2-chloro-1,3-dimethylbenzene",6781-98-2,238.15,Yaw
Cc1ccc(C)c(Cl)c1,"1,2",4.1450664077192085,1621.2528,204.078,64.97,217.68,C8H9Cl,"2-chloro-1,4-dimethylbenzene",95-72-7,273.95,Yaw
Cc1ccc(Cl)cc1C,"1,2",3.3859364077192087,1436.2558,202.132,70.57,263.44,C8H9Cl,"4-chloro-1,2-dimethylbenzene",615-60-1,267.15,Yaw
CC(Cl)c1ccccc1,2,4.184886407719208,1640.8326,203.3,67.21,219.17,C8H9Cl,"(1-chloroethyl)benzene, ()",38661-82-4,231.2,Yaw
ClCCc1ccccc1,2,4.473746407719209,1744.5132,201.159,73.37,216.92,C8H9Cl,(2-chloroethyl)benzene,622-24-2,231.2,Yaw
CCc1ccccc1Cl,"1,2",3.487186407719209,1420.1527,206.469,58.09,239.26,C8H9Cl,1-chloro-2-ethylbenzene,89-96-3,190.45,Yaw
CCc1cccc(Cl)c1,"1,2",4.141036407719208,1610.1108,204.968,62.41,214.33,C8H9Cl,1-chloro-3-ethylbenzene,620-16-6,218.15,Yaw
CCc1ccc(Cl)cc1,"1,2",4.141796407719209,1612.1997,204.801,62.89,214.96,C8H9Cl,1-chloro-4-ethylbenzene,622-98-0,210.55,Yaw
Cc1ccccc1CCl,"1,2",4.158586407719208,1659.569,201.02,73.77,229.19,C8H9Cl,1-(chloromethyl)-2-methylbenzene,552-45-4,231.2,Yaw
Cc1cccc(CCl)c1,"1,2",4.155556407719208,1650.8587,201.715,71.77,226.58,C8H9Cl,1-(chloromethyl)-3-methylbenzene,620-19-9,231.2,Yaw
Cc1ccc(CCl)cc1,"1,2",4.162196407719208,1670.023,200.186,76.17,232.33,C8H9Cl,1-(chloromethyl)-4-methylbenzene,104-82-5,231.2,Yaw
Cc1cc(C)cc(Cl)c1,2,4.184886407719208,1640.8326,203.3,67.21,219.17,C8H9Cl,"1-chloro-3,5-xylene",556-97-8,231.2,Yaw
COP(=S)(OC)Oc1ccc([N+](=O)[O-])c(Cl)c1,3,8.20578640771921,4807.8,273.15,203.5,335.07,C8H9ClNO5PS,chlorothion,500-28-7,294.15,Yaw
OCCc1ccc(Cl)cc1,3,7.426056407719209,3028.0716,190.0,135.36,234.99,C8H9ClO,4-chlorobenzeneethanol,1875-88-3,306.425275669242,ML