smiles,code,A [log10(atm)],B [C],C [C],TMIN [C],TMAX [C],FORMULA,NAME,CAS No,mp [K],mp_type
CCCCCCC[N+](=O)[O-],2,4.481166407719209,1842.5597,196.85,92.77,243.94,C7H15NO2,1-nitroheptane,693-39-0,278.49818359407203,ML
CCCCCCC,"1,2",4.165886407719209,1341.8887,223.733,-1.81,123.47,C7H16,heptane,142-82-5,182.55,Yaw
CCCCC(C)C,"1,2",4.177506407719209,1340.2139,230.768,-9.55,114.96,C7H16,2-methylhexane,591-76-4,154.9,Yaw
CCCC(C)CC,"1,2",4.206666407719209,1370.778,234.008,-8.83,116.97,C7H16,3-methylhexane,589-34-4,153.75,Yaw
CCC[C@@H](C)CC,"1,2",4.468396407719209,1441.0067,230.488,-3.53,115.29,C7H16,"3-methylhexane, (S)-",6131-24-4,154.15,Yaw
CCCC(C)(C)C,"1,2",4.155826407719209,1321.8976,238.893,-19.91,104.03,C7H16,"2,2-dimethylpentane",590-35-2,149.34,Yaw
CCC(C)C(C)C,"1,2",4.178636407719209,1360.1893,235.73,-11.26,115.05,C7H16,"2,3-dimethylpentane",565-59-3,165.6,Yaw
CC(C)CC(C)C,"1,2",4.142296407719209,1303.2278,234.125,-17.75,105.15,C7H16,"2,4-dimethylpentane",108-08-7,153.91,Yaw
CCC(C)(C)CC,"1,2",4.161656407719208,1359.4762,240.607,-15.62,111.53,C7H16,"3,3-dimethylpentane",562-49-2,138.7,Yaw
CC(C)C(C)(C)C,"1,2",4.073536407719208,1285.2567,234.634,-24.58,106.06,C7H16,"2,2,3-trimethylbutane",464-06-2,248.57,Yaw
CCC(CC)CC,"1,2",4.228496407719208,1402.1667,238.129,-8.62,118.89,C7H16,3-ethylpentane,617-78-7,154.55,Yaw
CC1CN(C)CCN1C,3,3.1325564077192087,1306.8526,214.503,3.38,247.03,C7H16N2,"1,2,4-trimethylpiperazine",120-85-4,267.4860826580266,ML
CC(C)N1CCNCC1,3,1.8504464077192084,813.9003,237.16,-19.03,288.14,C7H16N2,isopropyl piperazine,4318-42-7,263.28778989340935,ML
CCCCCCCO,"1,2",4.367966407719209,1496.5678,167.773,71.72,200.21,C7H16O,1-heptanol,111-70-6,239.15,Yaw
CCCCCC(C)O,"1,2",4.028266407719209,1219.4191,143.865,62.5,183.3,C7H16O,2-heptanol,543-49-7,243.0,Yaw
CCCCC[C@@H](C)O,2,5.155866407719209,1868.1129,215.031,50.45,169.76,C7H16O,(R)-(-)-2-heptanol,6033-24-5,242.7,Yaw
CCCCC(O)CC,"1,2",4.700196407719209,1441.918,154.778,64.32,172.99,C7H16O,3-heptanol,589-82-2,203.15,Yaw
CCCC(O)CCC,"1,2",4.636016407719208,1526.1362,174.342,59.84,177.71,C7H16O,4-heptanol,589-55-9,231.15,Yaw
CCCCC(C)CO,"1,2",4.786816407719209,1656.4452,183.193,65.24,186.07,C7H16O,2-methyl-1-hexanol,624-22-6,242.7,Yaw
CCCC(C)CCO,"1,2",4.5342364077192086,1504.045,159.509,74.95,195.79,C7H16O,3-methyl-1-hexanol,13231-81-7,242.7,Yaw
CCC(C)CCCO,"1,2",4.583726407719209,1542.9689,163.619,75.06,196.66,C7H16O,4-methyl-1-hexanol,818-49-5,242.7,Yaw
CC(C)CCCCO,"1,2",5.046426407719209,1807.1048,190.596,70.27,190.22,C7H16O,5-methyl-1-hexanol,627-98-5,242.7,Yaw
CCCCC(C)(C)O,"1,2",4.776896407719208,1596.7013,193.405,46.42,163.33,C7H16O,2-methyl-2-hexanol,625-23-0,242.7,Yaw
CCCC(C)C(C)O,"1,2",5.181346407719209,2002.7529,235.031,48.56,175.34,C7H16O,3-methyl-2-hexanol,2313-65-7,242.7,Yaw
CCC(C)CC(C)O,"1,2",4.486886407719209,1332.3065,148.933,60.3,169.35,C7H16O,4-methyl-2-hexanol,2313-61-3,242.7,Yaw
CC(C)CCC(C)O,"1,2",5.030876407719209,1814.2503,211.573,50.92,172.0,C7H16O,5-methyl-2-hexanol,627-59-8,242.7,Yaw
CCCC(O)C(C)C,"1,2",4.699036407719209,1561.1598,187.38,49.88,167.59,C7H16O,2-methyl-3-hexanol,617-29-8,242.7,Yaw
CCCC(C)(O)CC,"1,2",4.835096407719209,1645.7077,199.517,45.53,163.45,C7H16O,3-methyl-3-hexanol,597-96-6,242.7,Yaw
CCC(C)C(O)CC,"1,2",5.490146407719209,2319.5881,273.0,41.69,174.01,C7H16O,4-methyl-3-hexanol,615-29-2,242.7,Yaw
CCC(O)CC(C)C,"1,2",5.233356407719208,2015.5085,238.127,45.18,170.51,C7H16O,5-methyl-3-hexanol,623-55-2,242.7,Yaw
CCCC(CC)CO,"1,2",5.463036407719208,2324.3519,259.469,57.03,190.81,C7H16O,2-ethyl-1-pentanol,27522-11-8,242.7,Yaw
CCC(CC)CCO,2,6.727946407719209,2827.732,273.0,55.47,166.98,C7H16O,3-ethyl-1-pentanol,66225-51-2,242.7,Yaw
CCCC(C)(C)CO,"1,2",5.385456407719209,2299.5921,273.0,43.47,179.28,C7H16O,"2,2-dimethyl-1-pentanol",2370-12-9,242.7,Yaw
CCC(C)C(C)CO,2,5.554466407719209,1787.2539,174.473,65.9,165.73,C7H16O,"2,3-dimethyl-1-pentanol",10143-23-4,242.7,Yaw
CC(C)CC(C)CO,"1,2",5.574116407719208,2401.6089,273.0,49.15,182.45,C7H16O,"2,4-dimethyl-1-pentanol",6305-71-1,242.7,Yaw
CCC(C)(C)CCO,"1,2",4.357886407719208,1439.1872,163.249,67.44,191.51,C7H16O,"3,3-dimethyl-1-pentanol",19264-94-9,242.7,Yaw
CC(C)C(C)CCO,"1,2",5.024306407719209,1927.1308,218.712,60.38,189.3,C7H16O,"3,4-dimethyl-1-pentanol",6570-87-2,242.7,Yaw
CC(C)(C)CCCO,"1,2",5.434656407719208,2353.2056,273.0,48.68,185.39,C7H16O,"4,4-dimethyl-1-pentanol",3121-79-7,242.7,Yaw
CCC(CC)C(C)O,"1,2",5.673226407719209,2394.1023,273.0,43.93,172.65,C7H16O,3-ethyl-2-pentanol,609-27-8,242.7,Yaw
CCC(C)C(C)(C)O,"1,2",4.628336407719209,1502.0962,187.043,43.72,160.08,C7H16O,"2,3-dimethyl-2-pentanol",4911-70-0,242.7,Yaw
CC(C)CC(C)(C)O,"1,2",4.682116407719208,1533.3921,195.65,37.99,154.35,C7H16O,"2,4-dimethyl-2-pentanol",625-06-9,242.7,Yaw
CCC(C)(C)C(C)O,"1,2",5.455366407719209,2364.2099,285.873,36.39,172.81,C7H16O,"3,3-dimethyl-2-pentanol",19781-24-9,242.7,Yaw
CC(C)C(C)C(C)O,2,5.741646407719209,2413.1934,273.0,43.59,170.55,C7H16O,"3,4-dimethyl-2-pentanol",64502-86-9,242.7,Yaw
CC(O)CC(C)(C)C,"1,2",4.574146407719208,1482.8315,186.677,43.04,160.34,C7H16O,"4,4-dimethyl-2-pentanol",6144-93-0,213.15,Yaw
CCC(O)(CC)CC,"1,2",4.875556407719209,1718.7437,210.673,43.72,165.05,C7H16O,3-ethyl-3-pentanol,597-49-9,260.75,Yaw
CCC(O)C(C)(C)C,"1,2",4.496766407719209,1415.2676,178.88,43.03,158.43,C7H16O,"2,2-dimethyl-3-pentanol",3970-62-5,278.15,Yaw
CCC(C)(O)C(C)C,"1,2",4.700806407719209,1602.1913,201.083,42.35,163.07,C7H16O,"2,3-dimethyl-3-pentanol",595-41-5,242.7,Yaw
CC(C)C(O)C(C)C,"1,2",4.8775664077192085,1692.3014,209.106,41.29,160.67,C7H16O,"2,4-dimethyl-3-pentanol",600-36-2,265.15,Yaw
CCC(C)(CC)CO,"1,2",4.397306407719209,1379.7446,157.27,62.5,179.56,C7H16O,2-methyl-2-ethyl-1-butanol,18371-13-6,242.7,Yaw
CCC(CO)C(C)C,2,5.716076407719209,2017.3993,205.638,59.92,166.92,C7H16O,3-methyl-2-ethyl-1-butanol,32444-34-1,242.7,Yaw
CC(C)C(C)(C)CO,"1,2",5.085746407719209,1858.8413,209.0,57.82,179.5,C7H16O,"2,2,3-trimethyl-1-butanol",55505-23-2,242.7,Yaw
CC(CO)C(C)(C)C,2,5.744486407719208,2046.7385,209.0,59.41,167.0,C7H16O,"2,3,3-trimethyl-1-butanol",36794-64-6,242.7,Yaw
CC(C)(C)C(C)(C)O,"1,2",5.519796407719209,1870.3839,209.0,17.0,149.4,C7H16O,"2,3,3-trimethyl-2-butanol",594-83-2,290.15,Yaw
CCCCCCOC,"1,2",4.686106407719208,1626.3548,221.009,26.65,149.88,C7H16O,1-methoxy-hexane,4747-07-3,177.8,Yaw
CCCCC(C)OC,2,4.280286407719209,1468.3898,225.762,12.57,143.25,C7H16O,2-methoxy-hexane,---,177.8,Yaw
CCCC(CC)OC,2,4.280286407719209,1468.3898,225.762,12.57,143.25,C7H16O,3-methoxy-hexane,---,177.8,Yaw
CCCCCOCC,"1,2",4.588306407719209,1573.4294,223.372,19.85,143.63,C7H16O,1-ethoxy-pentane,17952-11-3,177.8,Yaw
CCCC(C)OCC,2,4.280286407719209,1468.3898,225.762,12.57,143.25,C7H16O,2-ethoxy-pentane,---,177.8,Yaw
CCOC(CC)CC,2,4.280286407719209,1468.3898,225.762,12.57,143.25,C7H16O,3-ethoxy-pentane,---,177.8,Yaw
CCCCOCCC,"1,2",4.725956407719209,1608.6329,223.233,20.25,140.31,C7H16O,1-propoxy-butane,3073-92-5,177.8,Yaw
CCCOC(C)CC,2,4.280286407719209,1468.3898,225.762,12.57,143.25,C7H16O,2-propoxy-butane,---,177.8,Yaw
CCCCOC(C)C,2,4.156906407719209,1429.5275,226.596,10.17,144.14,C7H16O,1-isopropoxy-butane,1860-27-1,177.8,Yaw
CCC(C)OC(C)C,2,3.853376407719209,1333.7162,228.82,3.77,146.63,C7H16O,2-isopropoxy-butane,18641-81-1,177.8,Yaw
CC(C)OC(C)(C)C,"1,2",5.7515564077192085,1808.1886,226.733,10.18,105.01,C7H16O,isopropyl-tert-butyl-ether,17348-59-3,177.8,Yaw
CC(C)COC(C)C,2,3.855166407719208,1334.2824,228.806,3.81,146.61,C7H16O,isopropyl isobutyl ether,78448-33-6,177.8,Yaw
CCOC(C)(C)CC,"1,2",4.6410564077192085,1531.1764,227.87,6.91,124.93,C7H16O,2-ethoxy-2-methylbutane,919-94-8,177.8,Yaw
CCOCCC(C)C,2,4.456456407719209,1524.489,224.789,15.77,142.08,C7H16O,ethyl isopentyl ether,628-04-6,177.8,Yaw
CCCOCC(C)C,"1,2",4.537966407719209,1518.9679,226.874,9.77,131.63,C7H16O,2-methyl-1-propoxypropane,15268-49-2,177.8,Yaw
CCCOC(C)(C)C,"1,2",4.801206407719208,1563.8226,228.264,5.77,119.24,C7H16O,2-methyl-2-propoxypropane,29072-93-3,177.8,Yaw
CCCCCC(O)CO,3,5.3273564077192095,2253.7796,189.9,122.77,258.5,C7H16O2,"1,2-heptanediol",3710-31-4,317.39,Yaw
CCCCC(O)CCO,3,5.8951364077192085,2475.9596,186.842,131.57,255.76,C7H16O2,"1,3-heptanediol",23433-04-7,317.39,Yaw
CCCC(O)CCCO,3,5.523036407719209,2330.4226,188.788,125.97,257.48,C7H16O2,"1,4-heptanediol",40646-07-9,317.39,Yaw
CCC(O)CCCCO,3,4.448536407719208,1908.4124,195.84,105.68,264.29,C7H16O2,"1,5-heptanediol",60096-09-5,317.39,Yaw
CC(O)CCCCCO,3,4.297546407719208,1848.8405,197.05,102.19,265.56,C7H16O2,"1,6-heptanediol",13175-27-4,317.39,Yaw
OCCCCCCCO,"1,2",5.224096407719209,2310.5051,183.228,141.97,286.09,C7H16O2,"1,7-heptanediol",629-30-1,293.15,Yaw
CCCCC(O)C(C)O,3,5.190606407719208,2200.1717,190.718,120.42,259.25,C7H16O2,"2,3-heptanediol",21508-07-6,317.39,Yaw
CCCC(O)CC(C)O,3,5.190606407719208,2200.1717,190.718,120.42,259.25,C7H16O2,"2,4-heptanediol",20748-86-1,317.39,Yaw
CC(O)CCCC(C)O,3,5.190606407719208,2200.1717,190.718,120.42,259.25,C7H16O2,"2,6-heptanediol",5969-12-0,317.39,Yaw
CCCCC(C)(O)CO,3,4.612156407719208,1972.8802,194.599,109.25,263.03,C7H16O2,"2-methyl-1,2-hexanediol",56255-50-6,317.39,Yaw
CCC(O)CC(C)(C)O,3,5.6190964077192085,2368.0197,188.266,127.47,257.01,C7H16O2,"2-methyl-2,4-hexanediol",66225-35-2,317.39,Yaw
CC(O)CCC(C)(C)O,3,5.6190964077192085,2368.0197,188.266,127.47,257.01,C7H16O2,"2-methyl-2,5-hexanediol",29044-06-2,309.65,Yaw
CC(CCO)CCCO,3,4.297546407719208,1848.8405,197.05,102.19,265.56,C7H16O2,"3-methyl-1,6-hexanediol",4089-71-8,317.39,Yaw
CCC(O)C(C)C(C)O,3,6.428066407719209,2683.9893,184.385,138.64,253.67,C7H16O2,"3-methyl-2,4-hexanediol",---,317.39,Yaw
CCC(O)C(C)(O)CC,3,5.6190964077192085,2368.0197,188.266,127.47,257.01,C7H16O2,"3-methyl-3,4-hexanediol",18938-47-1,317.39,Yaw
CC(O)C(C)CCCO,3,5.190606407719208,2200.1717,190.718,120.42,259.25,C7H16O2,"4-methyl-1,5-hexanediol",66225-37-4,317.39,Yaw
CCC(C)(O)CC(C)O,3,5.6190964077192085,2368.0197,188.266,127.47,257.01,C7H16O2,"4-methyl-2,4-hexanediol",38836-25-8,271.15,Yaw
CC(C)(O)CCCCO,3,4.612156407719208,1972.8802,194.599,109.25,263.03,C7H16O2,"5-methyl-1,5-hexanediol",1462-11-9,317.39,Yaw
CC(O)CC(O)C(C)C,3,6.428066407719209,2683.9893,184.385,138.64,253.67,C7H16O2,"5-methyl-2,4-hexanediol",54877-00-8,317.39,Yaw
CCC(O)C(CC)CO,3,4.746766407719209,2025.8557,193.628,112.04,262.06,C7H16O2,"2-ethyl-1,3-pentanediol",29887-11-4,317.39,Yaw
CCC(CO)CCCO,3,4.297546407719208,1848.8405,197.05,102.19,265.56,C7H16O2,"2-ethyl-1,5-pentanediol",14189-13-0,317.39,Yaw
CCC(O)(CC)C(C)O,3,4.1201764077192085,1778.7537,198.56,97.85,267.19,C7H16O2,"3-ethyl-2,3-pentanediol",66225-32-9,317.39,Yaw
CCC(C(C)O)C(C)O,3,4.140806407719209,1786.9117,198.379,98.37,266.99,C7H16O2,"3-ethyl-2,4-pentanediol",66225-33-0,317.39,Yaw
CCC(O)C(C)(C)CO,3,4.304986407719209,1851.7756,196.989,102.37,265.5,C7H16O2,"2,2-dimethyl-1,3-pentanediol",2157-31-5,331.15,Yaw
CC(C)(CO)CCCO,3,4.612156407719208,1972.8802,194.599,109.25,263.03,C7H16O2,"2,2-dimethyl-1,5-pentanediol",3121-82-2,317.39,Yaw
CCC(C)(O)C(C)CO,3,5.6190964077192085,2368.0197,188.266,127.47,257.01,C7H16O2,"2,3-dimethyl-1,3-pentanediol",66225-52-3,317.39,Yaw
CCC(C)(O)C(C)(C)O,3,6.108896407719209,2559.4533,185.814,134.53,254.87,C7H16O2,"2,3-dimethyl-2,3-pentanediol",6931-70-0,317.39,Yaw
CC(CO)CC(C)CO,3,5.190606407719208,2200.1717,190.718,120.42,259.25,C7H16O2,"meso-2,4-dimethyl-1,5-pentanediol",2121-69-9,317.39,Yaw
CC(C)C(O)C(C)(C)O,3,3.5333264077192084,1545.8782,204.356,59.0,273.9,C7H16O2,"2,4-dimethyl-2,3-pentanediol",66225-53-4,332.15,Yaw
CC(C)(O)CC(C)(C)O,3,3.821666407719209,1660.5045,201.34,89.85,270.31,C7H16O2,"2,4-dimethyl-2,4-pentanediol",24892-49-7,271.15,Yaw
CC(C)(CCO)CCO,3,4.612156407719208,1972.8802,194.599,109.25,263.03,C7H16O2,"3,3-dimethyl-1,5-pentanediol",53120-74-4,317.39,Yaw
CC(CCO)C(C)(C)O,3,5.6190964077192085,2368.0197,188.266,127.47,257.01,C7H16O2,"3,4-dimethyl-1,4-pentanediol",63521-36-8,317.39,Yaw
CC(C)(C)CC(O)CO,3,5.6190964077192085,2368.0197,188.266,127.47,257.01,C7H16O2,"4,4-dimethyl-1,2-pentanediol",66225-54-5,317.39,Yaw
CCCC(CO)CCO,3,4.297546407719208,1848.8405,197.05,102.19,265.56,C7H16O2,"2-propyl-1,4-butanediol",62946-68-3,317.39,Yaw
CC(C)C(CO)CCO,3,5.190606407719208,2200.1717,190.718,120.42,259.25,C7H16O2,"2-isopropyl-1,4-butanediol",39497-66-0,317.39,Yaw
CCC(CO)C(C)CO,3,5.190606407719208,2200.1717,190.718,120.42,259.25,C7H16O2,"2-methyl-3-ethyl-1,4-butanediol",---,317.39,Yaw
CCC(C)C(CO)CO,3,5.190606407719208,2200.1717,190.718,120.42,259.25,C7H16O2,"2-sec-butyl-1,3-propanediol",33673-01-7,322.15,Yaw
CCCC(C)(CO)CO,3,5.266176407719209,2229.8015,190.262,121.73,258.83,C7H16O2,"2-methyl-2-propyl-1,3-propanediol",78-26-2,328.85,Yaw
CCC(CC)(CO)CO,3,5.1426964077192086,2181.378,191.012,119.57,259.53,C7H16O2,"2,2-diethyl-1,3-propanediol",115-76-4,334.55,Yaw
CCCCOCC(C)O,"1,2",5.132406407719209,1943.0636,208.387,68.67,193.79,C7H16O2,1-butoxy-2-propanol,5131-66-8,257.7,Yaw
CCCCCOCCO,3,5.360916407719209,2057.4061,204.634,79.47,201.98,C7H16O2,2-(pentyloxy)ethanol,6196-58-3,257.7,Yaw
CC(O)COC(C)(C)C,3,3.729726407719209,1473.9016,216.032,46.67,213.84,C7H16O2,1-tert-butoxy-2-propanol,57018-52-7,217.25,Yaw
CC(C)COCC(C)O,3,4.449646407719209,1732.4216,210.194,63.47,207.4,C7H16O2,1-isobutoxy-2-propanol,23436-19-3,298.15,Yaw
CC(CO)OC(C)(C)C,3,3.976716407719208,1562.6608,213.808,52.97,211.33,C7H16O2,propylene glycol 2-tert-butyl ether,94023-15-1,257.7,Yaw
CCCOCCOCCO,3,7.423396407719208,2787.3634,196.339,103.24,195.01,C7H16O2,diethylene glycol monopropyl ether,---,225.2004692243287,ML
CCCCOCCOC,"1,2",5.094996407719209,1843.2119,215.219,49.01,169.27,C7H16O2,1-butoxy-2-methoxyethane,13343-98-1,257.7,Yaw
CCCCOCCCO,3,7.590216407719209,2846.2128,195.84,104.68,194.63,C7H16O2,3-butoxy-1-propanol,10215-33-5,257.7,Yaw
CC(C)COCCCO,3,7.590216407719209,2846.2128,195.84,104.68,194.63,C7H16O2,"isobutoxypropanol, mixed isomers",63716-39-2,257.7,Yaw
CCCCOS(=O)OCCC,3,3.285816407719208,1385.8325,198.657,69.57,265.64,C7H16O3S,butyl propyl sulfite,---,223.27571076516628,ML
CCCCCCCS,"1,2",4.699926407719208,1804.4187,206.875,67.32,203.32,C7H16S,1-heptanethiol,1639-09-4,229.92,Yaw
CCCCCC(C)S,2,4.273856407719209,1644.7347,210.584,56.65,203.41,C7H16S,2-heptanethiol,1628-00-2,132.15,Yaw
CCCCC(S)CC,2,4.216096407719209,1623.6763,210.862,55.45,203.86,C7H16S,3-heptanethiol,---,181.04,Yaw
CCCC(S)CCC,2,4.179686407719209,1610.8165,211.14,54.65,204.16,C7H16S,4-heptanethiol,---,181.04,Yaw
CCCCC(C)CS,2,4.499126407719209,1723.4962,208.821,61.32,201.72,C7H16S,2-methyl-1-hexanethiol,---,181.04,Yaw
CCCC(C)CCS,2,4.458846407719209,1709.3055,209.099,60.52,202.01,C7H16S,3-methyl-1-hexanethiol,---,181.04,Yaw
CCC(C)CCCS,2,4.419126407719209,1695.3083,209.377,59.72,202.3,C7H16S,4-methyl-1-hexanethiol,---,181.04,Yaw
CC(C)CCCCS,2,4.228586407719209,1628.0872,210.767,55.72,203.76,C7H16S,5-methyl-1-hexanethiol,---,181.04,Yaw
CCCCC(C)(C)S,2,4.192006407719209,1615.17,211.045,54.92,204.06,C7H16S,2-methyl-2-hexanethiol,---,181.04,Yaw
CCCC(C)C(C)S,2,4.155916407719209,1602.4203,211.323,54.12,204.36,C7H16S,3-methyl-2-hexanethiol,---,181.04,Yaw
CCC(C)CC(C)S,2,4.120306407719209,1589.8349,211.601,53.32,204.66,C7H16S,4-methyl-2-hexanethiol,---,181.04,Yaw
CC(C)CCC(C)S,2,4.085166407719209,1577.4103,211.879,52.52,204.97,C7H16S,5-methyl-2-hexanethiol,---,181.04,Yaw
CCCCCCSC,2,5.001716407719209,1820.3836,209.699,54.79,177.56,C7H16S,2-thiaoctane,20291-60-5,206.35,Yaw
CCCCCSCC,2,4.9520064077192085,1803.6708,209.977,53.99,177.83,C7H16S,3-thiaoctane,26158-99-6,206.35,Yaw
CCCCSCCC,"1,2",4.434626407719208,1640.9528,212.182,47.65,184.8,C7H16S,4-thiaoctane,1613-46-3,206.35,Yaw
CCCCC(C)SC,2,4.537986407719209,1664.2243,212.479,46.79,180.31,C7H16S,3-methyl-2-thiaheptane,---,206.35,Yaw
CCCC(C)CSC,2,4.4953864077192085,1649.85,212.757,45.99,180.59,C7H16S,4-methyl-2-thiaheptane,---,206.35,Yaw
CCC(C)CCSC,2,4.453406407719209,1635.6816,213.035,45.19,180.88,C7H16S,5-methyl-2-thiaheptane,---,206.35,Yaw
CCCCSC(C)C,2,4.4953864077192085,1649.85,212.757,45.99,180.59,C7H16S,2-methyl-3-thiaheptane,---,206.35,Yaw
CCCC(C)SCC,2,4.453406407719209,1635.6816,213.035,45.19,180.88,C7H16S,4-methyl-3-thiaheptane,---,206.35,Yaw
CCSCC(C)CC,2,4.412036407719208,1621.7146,213.313,44.39,181.17,C7H16S,5-methyl-3-thiaheptane,---,206.35,Yaw
SCCCCCCCS,2,3.984106407719208,1769.0058,182.167,119.46,298.14,C7H16S2,"1,7-heptanedithiol",62224-02-6,250.6727564198186,ML
CC(S)CCCCCS,2,4.033036407719209,1807.0986,186.225,119.35,297.99,C7H16S2,"1,6-heptanedithiol",---,243.98021220676029,ML
CCC(S)CCCCS,2,4.003666407719209,1795.0536,186.503,118.55,298.3,C7H16S2,"1,5-heptanedithiol",---,241.88685364252342,ML
CCCC(S)CCCS,2,3.974626407719208,1783.1385,186.781,117.75,298.61,C7H16S2,"1,4-heptanedithiol",---,242.73979259253306,ML
CCCCC(S)CCS,2,3.945906407719209,1771.3513,187.059,116.95,298.92,C7H16S2,"1,3-heptanedithiol",---,248.44587015790682,ML
CCCCCC(S)CS,2,3.917506407719209,1759.6897,187.337,116.15,299.24,C7H16S2,"1,2-heptanedithiol",---,194.92,Yaw
CCCCCCSSC,2,4.646786407719208,1891.3874,195.182,94.57,240.04,C7H16S2,"2,3-dithianonane",---,194.92,Yaw
CCCCCSSCC,2,4.567726407719209,1861.7477,195.738,92.97,240.61,C7H16S2,"3,4-dithianonane",---,194.92,Yaw
CCCCSSCCC,2,4.490766407719208,1832.877,196.294,91.37,241.17,C7H16S2,"4,5-dithianonane",---,194.92,Yaw
CCCCCSCSC,2,5.076806407719209,2052.3056,192.402,102.57,237.33,C7H16S2,"2,4-dithianonane",---,194.92,Yaw
CCCCSCSCC,2,4.9858364077192086,2018.3037,192.958,100.97,237.86,C7H16S2,"3,5-dithianonane",---,194.92,Yaw
CCCSCSCCC,2,4.897456407719209,1985.2497,193.514,99.37,238.4,C7H16S2,"4,6-dithianonane",57422-58-9,194.92,Yaw
CC[Si](C)(CC)C(C)Cl,3,4.906386407719209,2184.2,273.15,48.66,201.12,C7H17ClSi,(1-chloroethyl)-diethylmethylsilane,18817-17-9,231.92636724743565,ML
CCCCCCCN,"1,2",4.847006407719209,1785.1334,212.446,52.89,180.24,C7H17N,heptylamine,111-68-2,254.15,Yaw
CC(C)CC(C)(C)N,2,3.854186407719209,1417.2246,222.148,24.97,176.71,C7H17N,"2,4-dimethyl-2-pentanamine",64379-30-2,254.15,Yaw
CCCCCC(C)N,"1,2",4.792436407719209,1718.7501,216.588,40.97,166.09,C7H17N,2-heptanamine,123-82-0,254.15,Yaw
CCCC(N)CCC,2,4.521596407719208,1640.6387,217.283,38.97,171.44,C7H17N,4-heptanamine,16751-59-0,254.15,Yaw
CCCC(C)CCN,2,4.962956407719209,1787.6772,214.642,46.57,168.82,C7H17N,3-methyl-1-hexanamine,65530-93-0,254.15,Yaw
CCC(C)CC(C)N,2,4.234646407719208,1544.7609,219.229,33.37,173.48,C7H17N,4-methyl-2-hexanamine,105-41-9,254.15,Yaw
CCC(C)CCCN,2,5.1697464077192095,1856.4145,213.53,49.77,167.76,C7H17N,4-methyl-1-hexylamine,34263-68-8,254.15,Yaw
CCCCC[C@H](C)N,2,4.676686407719209,1692.3608,216.31,41.77,170.46,C7H17N,(S)-2-heptylamine,44745-29-1,254.15,Yaw
CCCCC[C@@H](C)N,2,4.676686407719209,1692.3608,216.31,41.77,170.46,C7H17N,(R)-2-heptylamine,6240-90-0,254.15,Yaw
CCCCC(N)CC,"1,2",4.794576407719209,1715.8181,216.866,40.17,164.97,C7H17N,3-aminoheptane,28292-42-4,254.15,Yaw
CC(C)CCC(C)N,2,3.933596407719208,1443.887,221.504,26.83,175.98,C7H17N,5-methyl-2-hexylamine,28292-43-5,254.15,Yaw
CCCCCCNC,"1,2",4.840316407719208,1731.0836,216.588,40.97,164.77,C7H17N,methylhexylamine,35161-70-7,235.15,Yaw
CCCCCNCC,2,4.718856407719208,1672.2384,218.812,34.57,159.71,C7H17N,ethylpentylamine,17839-26-8,235.15,Yaw
CC(C)NC(C)(C)C,2,3.3994564077192084,1238.699,228.82,5.77,170.96,C7H17N,N-tert-butylisopropylamine,7515-80-2,235.15,Yaw
CCCCNCCC,2,4.695396407719208,1664.5782,218.951,34.17,159.85,C7H17N,N-propylbutylamine,20193-21-9,235.15,Yaw
CCCCCN(C)C,"1,2",4.790096407719209,1648.505,222.148,24.97,145.08,C7H17N,dimethylpentylamine,26153-88-8,181.98,Yaw
CCCC(C)N(C)C,2,4.475816407719209,1527.7033,225.762,14.57,140.17,C7H17N,dimethyl-2-pentylamine,57303-85-2,181.98,Yaw
CCC(CC)N(C)C,"1,2",4.7637564077192085,1621.1843,223.816,20.17,139.46,C7H17N,dimethyl-3-pentylamine,18636-94-7,181.98,Yaw
CCC(C)CN(C)C,2,4.752936407719209,1614.5626,224.136,19.25,138.53,C7H17N,dimethyl-2-methylbutylamine,66225-39-6,181.98,Yaw
CC(C)CCN(C)C,"1,2",4.787986407719209,1618.3919,224.511,18.17,136.18,C7H17N,dimethyl-3-methylbutylamine,2315-43-7,181.98,Yaw