smiles,code,A [log10(atm)],B [C],C [C],TMIN [C],TMAX [C],FORMULA,NAME,CAS No,mp [K],mp_type
CCC(O)C(C)C,"1,2",4.375166407719209,1322.6894,177.468,33.96,147.19,C6H14O,2-methyl-3-pentanol,565-67-3,224.73,Yaw
CCC(C)(O)CC,"1,2",3.954876407719208,1140.5223,166.534,28.91,145.61,C6H14O,3-methyl-3-pentanol,77-74-7,249.55,Yaw
CCC(CC)CO,"1,2",4.5494864077192085,1483.1133,178.145,52.5,170.95,C6H14O,2-ethyl-1-butanol,97-95-0,158.75,Yaw
CCC(C)(C)CO,"1,2",4.248966407719209,1312.2739,172.996,41.09,159.4,C6H14O,"2,2-dimethyl-1-butanol",1185-33-7,224.73,Yaw
CC(C)C(C)CO,"1,2",4.693846407719208,1490.0223,175.592,51.04,163.6,C6H14O,"2,3-dimethyl-1-butanol",19550-30-2,224.73,Yaw
CC(C)(C)CCO,2,5.943086407719209,1939.4255,204.796,43.09,138.95,C6H14O,"3,3-dimethyl-1-butanol",624-95-3,213.15,Yaw
CC(C)C(C)(C)O,"1,2",4.152526407719209,1225.294,176.222,26.87,141.91,C6H14O,"2,3-dimethyl-2-butanol",594-60-5,262.75,Yaw
CC(O)C(C)(C)C,"1,2",4.075026407719209,1168.069,166.791,5.3,142.71,C6H14O,"3,3-dimethyl-2-butanol",464-07-3,278.45,Yaw
CCCCCOC,"1,2",4.670696407719209,1529.3461,228.584,4.85,121.41,C6H14O,methyl pentyl ether,628-80-8,167.37,Yaw
CCCC(C)OC,"1,2",4.624126407719209,1491.8197,230.766,-1.43,114.31,C6H14O,methyl 1-methylbutyl ether,6795-88-6,167.37,Yaw
CCC(CC)OC,2,4.492066407719209,1451.5527,231.6,-3.83,114.75,C6H14O,methyl 1-ethylpropyl ether,36839-67-5,167.37,Yaw
CCC(C)COC,2,4.589656407719208,1480.5364,231.044,-2.23,114.18,C6H14O,methyl 2-methylbutyl ether,62016-48-2,167.37,Yaw
COCCC(C)C,"1,2",4.593906407719208,1481.5083,231.044,-2.23,114.06,C6H14O,methyl 3-methylbutyl ether,626-91-5,167.37,Yaw
CCC(C)(C)OC,"1,2",4.671826407719209,1486.6815,232.073,-5.19,108.07,C6H14O,methyl tert-pentyl ether,994-05-8,167.37,Yaw
COC(C)C(C)C,2,4.261836407719208,1383.0808,232.99,-7.83,116.2,C6H14O,"methyl 1,2-dimethylpropyl ether",62016-49-3,167.37,Yaw
CCCCOCC,"1,2",4.7002464077192085,1513.3991,230.433,-0.47,113.58,C6H14O,ethyl butyl ether,628-81-9,170.15,Yaw
CCOC(C)CC,"1,2",4.9836564077192085,1539.1572,233.491,-9.27,95.2,C6H14O,ethyl sec-butyl ether,2679-87-0,167.37,Yaw
CCOCC(C)C,"1,2",4.663926407719209,1467.1251,233.519,-9.35,102.75,C6H14O,ethyl isobutyl ether,627-02-1,167.37,Yaw
CCOC(C)(C)C,"1,2",4.648866407719209,1435.4585,235.826,-15.99,94.33,C6H14O,ethyl tert-butyl ether,637-92-3,179.15,Yaw
CCCOCCC,"1,2",4.677836407719209,1500.9863,231.022,-2.17,111.92,C6H14O,dipropyl ether,111-43-3,149.95,Yaw
CC(C)OC(C)C,"1,2",4.656786407719209,1421.8429,237.077,-19.59,89.35,C6H14O,diisopropyl ether,108-20-3,187.65,Yaw
COCC(C)(C)C,2,4.261836407719208,1383.0808,232.99,-7.83,116.2,C6H14O,"methyl 2,2-dimethylpropyl ether",1118-00-9,167.37,Yaw
CCOC(C)OCC,"1,2",4.541316407719209,1475.8905,222.291,7.52,125.77,C6H14O2,acetal,105-57-7,173.15,Yaw
CCCCOCCO,"1,2",5.080926407719208,1928.1455,208.437,68.53,194.95,C6H14O2,2-butoxyethanol,111-76-2,199.17,Yaw
CC(O)COC(C)C,3,4.287336407719208,1601.0689,217.7,41.87,183.94,C6H14O2,1-(1-methylethoxy)-2-propanol,3944-36-3,203.68,Yaw
CC(C)COCCO,"1,2",5.071146407719208,1884.3594,211.584,59.47,183.45,C6H14O2,2-(2-methylpropoxy)ethanol,4439-24-1,203.68,Yaw
CCCOCC(C)O,"1,2",5.0187064077192085,1829.446,214.726,50.43,173.06,C6H14O2,1-propoxy-2-propanol,1569-01-3,193.15,Yaw
CCOCCOCC,"1,2",5.084856407719209,1745.7211,222.468,28.15,142.45,C6H14O2,ethylene glycol diethyl ether,629-14-1,199.15,Yaw
COC(C)(C)CCO,3,6.154246407719208,2236.6573,207.692,70.67,174.43,C6H14O2,3-methoxy-3-methylbutanol,56539-66-3,223.25,Yaw
CCC(C)OCCO,3,9.729566407719208,3441.8353,198.009,98.44,167.04,C6H14O2,ethylene glycol mono-sec-butyl ether,7795-91-7,203.68,Yaw
CCCOCCCO,3,9.729566407719208,3441.8353,198.009,98.44,167.04,C6H14O2,n-propoxypropanol (mixed isomers),30136-13-1,203.68,Yaw
CC(O)CC(C)(C)O,"1,2",5.092056407719209,2032.7949,201.159,90.37,223.13,C6H14O2,hexylene glycol,107-41-5,223.15,Yaw
CCCCC(O)CO,3,5.215076407719209,2166.816,193.792,111.57,247.15,C6H14O2,"1,2-hexanediol",6920-22-5,318.15,Yaw
CCCC(O)CCO,3,5.774556407719208,2381.6198,190.734,120.37,244.38,C6H14O2,"1,3-hexanediol",21531-91-9,299.53,Yaw
CCC(O)CCCO,3,7.166156407719209,2913.7248,184.896,137.17,239.53,C6H14O2,"1,4-hexanediol",16432-53-4,299.53,Yaw
CC(O)CCCCO,3,5.886896407719208,2424.6766,190.178,121.97,243.9,C6H14O2,"1,5-hexanediol",928-40-5,299.53,Yaw
OCCCCCCO,"1,2",5.099496407719209,2226.4433,186.55,132.41,277.44,C6H14O2,"1,6-hexanediol",629-11-8,315.15,Yaw
CCCC(O)C(C)O,3,4.433746407719209,1865.5998,199.074,60.0,252.35,C6H14O2,"2,3-hexanediol",617-30-1,333.15,Yaw
CCC(O)CC(C)O,3,4.659186407719209,1952.6897,197.406,101.17,250.65,C6H14O2,"2,4-hexanediol",19780-90-6,299.53,Yaw
CC(O)CCC(C)O,3,5.068716407719209,2110.5169,194.682,109.01,247.99,C6H14O2,"2,5-hexanediol",2935-44-6,316.15,Yaw
C[C@@H](O)CC[C@@H](C)O,3,4.758516407719209,1991.01,196.711,103.17,249.96,C6H14O2,"(2R,5R)-2,5-hexanediol",17299-07-9,323.15,Yaw
C[C@H](O)CC[C@H](C)O,3,4.758516407719209,1991.01,196.711,103.17,249.96,C6H14O2,"(2S,5S)-2,5-hexanediol",34338-96-0,324.65,Yaw
CCC(O)C(O)CC,3,5.205256407719208,2163.0428,193.851,111.4,247.21,C6H14O2,"3,4-hexanediol",922-17-8,299.53,Yaw
C[C@@H](O)CC(C)(C)O,3,4.158706407719209,1759.1208,201.298,89.97,254.71,C6H14O2,"(R)-(-)-2-methyl-2,4-pentanediol",99210-90-9,299.53,Yaw
CCCC(C)(O)CO,3,4.896986407719209,2044.3875,195.78,105.85,249.04,C6H14O2,"2-methyl-1,2-pentanediol",20667-05-4,299.53,Yaw
CCC(O)C(C)CO,3,5.046446407719209,2101.946,194.821,108.61,248.12,C6H14O2,"2-methyl-1,3-pentanediol",149-31-5,243.15,Yaw
CC(CO)CCCO,3,5.205256407719208,2163.0428,193.851,111.4,247.21,C6H14O2,"2-methyl-1,5-pentanediol",42856-62-2,299.53,Yaw
CCC(O)C(C)(C)O,3,5.644886407719209,2331.8894,191.399,118.46,244.97,C6H14O2,"2-methyl-2,3-pentanediol",7795-80-4,299.53,Yaw
CCC(C)(O)CCO,3,4.613826407719209,1935.1796,197.732,100.23,250.97,C6H14O2,"3-methyl-1,3-pentanediol",33879-72-0,299.53,Yaw
CC(CCO)CCO,3,6.602946407719209,2698.677,187.009,131.09,241.22,C6H14O2,"3-methyl-1,5-pentanediol",4457-71-0,213.15,Yaw
CCC(C)(O)C(C)O,3,5.644886407719209,2331.8894,191.399,118.46,244.97,C6H14O2,"3-methyl-2,3-pentanediol",63521-37-9,299.53,Yaw
CC(O)C(C)C(C)O,3,4.678786407719208,1960.254,197.267,101.57,250.51,C6H14O2,"3-methyl-2,4-pentanediol",5683-44-3,299.53,Yaw
CC(C)(O)CCCO,3,5.086646407719209,2117.4167,194.571,109.33,247.88,C6H14O2,"4-methyl-1,4-pentanediol",1462-10-8,299.53,Yaw
CCC(O)(CC)CO,3,4.258656407719209,1797.8471,200.464,92.37,253.81,C6H14O2,"2-ethyl-1,2-butanediol",66553-16-0,318.65,Yaw
CCC(CO)C(C)O,3,4.501396407719208,1891.7496,198.56,97.85,251.82,C6H14O2,"2-ethyl-1,3-butanediol",66553-17-1,299.53,Yaw
CCC(CO)CCO,3,4.501396407719208,1891.7496,198.56,97.85,251.82,C6H14O2,"2-ethyl-1,4-butanediol",57716-79-7,299.53,Yaw
CC(O)C(C)(C)CO,3,4.341326407719208,1829.8508,199.797,94.29,253.1,C6H14O2,"2,2-dimethyl-1,3-butanediol",76-35-7,260.35,Yaw
CC(C)(CO)CCO,3,4.501396407719208,1891.7496,198.56,97.85,251.82,C6H14O2,"2,2-dimethyl-1,4-butanediol",32812-23-0,299.53,Yaw
CC(C)C(C)(O)CO,3,4.501396407719208,1891.7496,198.56,97.85,251.82,C6H14O2,"2,3-dimethyl-1,2-butanediol",66553-15-9,299.53,Yaw
CC(CO)C(C)(C)O,3,4.501396407719208,1891.7496,198.56,97.85,251.82,C6H14O2,"2,3-dimethyl-1,3-butanediol",24893-35-4,299.53,Yaw
CC(C)(O)C(C)(C)O,"1,2",4.979686407719209,1911.5816,208.026,41.1,200.55,C6H14O2,"2,3-dimethyl-2,3-butanediol",76-09-5,316.45,Yaw
CC(C)(C)C(O)CO,"1,2",5.115116407719209,2068.7334,198.935,96.77,230.79,C6H14O2,"3,3-dimethyl-1,2-butanediol",59562-82-2,321.65,Yaw
CCCC(CO)CO,3,4.293146407719209,1811.2018,200.184,93.18,253.51,C6H14O2,"2-propyl-1,3-propanediol",2612-28-4,299.53,Yaw
CC(C)C(CO)CO,3,5.205256407719208,2163.0428,193.851,111.4,247.21,C6H14O2,"2-isopropyl-1,3-propanediol",2612-27-3,299.53,Yaw
CCC(C)(CO)CO,"1,2",5.105426407719208,2139.8998,193.292,113.01,252.11,C6H14O2,"2-methyl-2-ethyl-1,3-propanediol",77-84-9,313.45,Yaw
CCCS(=O)(=O)CCC,"1,2",4.500566407719209,2024.7852,181.046,136.25,301.1,C6H14O2S,dipropyl sulfone,598-03-8,303.0,Yaw
COCCOCCOC,"1,2",4.809286407719209,1924.1516,238.041,49.57,188.77,C6H14O3,diethylene glycol dimethyl ether,111-96-6,209.11,Yaw
CC(O)COC(C)CO,"1,2",7.034506407719208,3715.6134,296.398,120.37,255.41,C6H14O3,dipropylene glycol,25265-71-8,233.0,Yaw
CCOCCOCCO,"1,2",5.115836407719208,2237.9554,235.556,84.3,229.25,C6H14O3,2-(2-ethoxyethoxy)ethanol,111-90-0,219.15,Yaw
CCC(CO)(CO)CO,"1,2",7.126736407719209,4059.6394,272.635,178.06,322.12,C6H14O3,trimethylolpropane,77-99-6,331.15,Yaw
OCCCCC(O)CO,3,5.157206407719208,1257.2968,56.5,122.14,202.41,C6H14O3,"1,2,6-hexanetriol",106-69-4,334.6680373681934,ML
CCCCOS(=O)OCC,3,3.224916407719209,1317.5244,204.078,53.97,246.53,C6H14O3S,butyl ethyl sulfite,92876-99-8,222.50479328944314,ML
CCCOS(=O)OCCC,"1,2",3.647296407719209,1439.5046,202.827,57.57,227.36,C6H14O3S,dipropyl sulfite,623-98-3,217.9184948613698,ML
OCCOCCOCCO,"1,2",6.449936407719209,3742.2446,295.198,154.01,313.4,C6H14O4,triethylene glycol,112-27-6,265.79,Yaw
CCCCCOS(=O)(=O)OC,3,3.3335064077192085,1523.1122,191.268,100.83,311.0,C6H14O4S,methyl pentyl sulfate,5867-93-6,245.60681880296565,ML
CCCCOS(=O)(=O)OCC,3,3.3335064077192085,1523.1122,191.268,100.83,311.0,C6H14O4S,butyl ethyl sulfate,5867-95-8,244.31369565368382,ML
CCCOS(=O)(=O)OCCC,3,3.3335064077192085,1523.1122,191.268,100.83,311.0,C6H14O4S,dipropyl sulfate,598-05-0,243.0346814455038,ML
CCCCCCS,"1,2",4.768456407719208,1738.9355,213.625,47.9,175.62,C6H14S,1-hexanethiol,111-31-9,192.62,Yaw
CCCCC(C)S,"1,2",4.680226407719209,1668.7365,217.45,36.89,163.61,C6H14S,2-hexanethiol,1679-06-7,126.15,Yaw
CCCC(S)CC,2,4.138596407719208,1525.4273,217.728,35.69,179.77,C6H14S,3-hexanethiol,1633-90-5,159.39,Yaw
CCCC(C)CS,2,4.101576407719208,1512.9239,218.006,34.89,180.07,C6H14S,2-methyl-1-pentanethiol,---,159.39,Yaw
CCC(C)CCS,2,4.0650664077192085,1500.5872,218.284,34.09,180.38,C6H14S,3-methyl-1-pentanethiol,---,159.39,Yaw
CC(C)CCCS,2,4.029056407719208,1488.4138,218.562,33.29,180.69,C6H14S,4-methyl-1-pentanethiol,---,159.39,Yaw
CCCC(C)(C)S,2,4.467616407719208,1637.0632,215.571,42.3,177.33,C6H14S,2-methyl-2-pentanethiol,1633-97-2,159.39,Yaw
CCC(C)C(C)S,2,4.402976407719208,1614.6,215.849,41.1,177.77,C6H14S,3-methyl-2-pentanethiol,---,159.39,Yaw
CC(C)CC(C)S,2,4.362236407719209,1600.8732,216.127,40.3,178.06,C6H14S,4-methyl-2-pentanethiol,---,159.39,Yaw
CC(C)C(C)(C)S,2,4.322086407719208,1587.3387,216.405,39.5,178.35,C6H14S,"2,3-dimethyl-2-butanethiol",1639-01-6,159.39,Yaw
CCCCCSC,"1,2",4.421246407719209,1595.2041,215.754,37.37,171.41,C6H14S,2-thiaheptane,1741-83-9,179.16,Yaw
CCCCSCC,"1,2",4.423036407719208,1593.2238,215.96,36.78,170.56,C6H14S,3-thiaheptane,638-46-0,178.03,Yaw
CCCSCCC,"1,2",4.462126407719208,1598.3672,216.358,35.63,167.76,C6H14S,4-thiaheptane,111-47-7,170.44,Yaw
CC(C)SC(C)C,"1,2",4.282436407719208,1479.7664,222.693,17.4,148.98,C6H14S,diisopropyl sulfide,625-80-9,170.45,Yaw
CCCC(C)SC,2,4.783806407719209,1666.1036,217.422,32.57,154.25,C6H14S,3-methyl-2-thiahexane,13286-91-4,176.46,Yaw
CCC(C)CSC,2,4.833136407719208,1681.9398,217.144,33.37,153.97,C6H14S,4-methyl-2-thiahexane,15013-37-3,176.46,Yaw
CSCCC(C)C,2,4.735276407719208,1650.5176,217.7,31.77,154.52,C6H14S,5-methyl-2-thiahexane,13286-90-3,176.46,Yaw
CCCSC(C)C,"1,2",4.4071264077192085,1549.1251,219.354,27.01,157.92,C6H14S,2-methyl-3-thiahexane,5008-73-1,176.46,Yaw
CCSC(C)CC,"1,2",4.412836407719209,1555.7876,218.91,28.29,159.46,C6H14S,4-methyl-3-thiahexane,5008-72-0,176.46,Yaw
CCSCC(C)C,"1,2",4.412116407719209,1557.4823,218.751,28.75,160.1,C6H14S,5-methyl-3-thiahexane,1613-45-2,176.46,Yaw
CCC(CC)SC,2,4.926556407719208,1711.9175,216.63,34.85,153.47,C6H14S,3-ethyl-2-thiapentane,57093-84-2,176.46,Yaw
CCC(C)(C)SC,2,5.366076407719209,1852.7108,214.406,41.25,151.38,C6H14S,"3,3-dimethyl-2-thiapentane",13286-92-5,176.46,Yaw
CSC(C)C(C)C,2,4.289846407719208,1507.1852,220.48,23.77,157.37,C6H14S,"3,4-dimethyl-2-thiapentane",53897-51-1,176.46,Yaw
CSCC(C)(C)C,2,4.289846407719208,1507.1852,220.48,23.77,157.37,C6H14S,"4,4-dimethyl-2-thiapentane",6079-57-8,176.46,Yaw
CCSC(C)(C)C,"1,2",4.544276407719209,1543.8745,222.59,17.7,141.25,C6H14S,"2,2-dimethyl-3-thiapentane",14290-92-7,184.2,Yaw
SCCCCCCS,2,4.240146407719209,1840.1344,192.067,105.85,275.08,C6H14S2,"1,6-hexanedithiol",1191-43-1,252.15,Yaw
CC(S)CCCCS,2,4.302196407719209,1854.7514,189.205,110.77,274.35,C6H14S2,"1,5-hexanedithiol",---,252.15,Yaw
CCC(S)CCCS,2,4.235546407719209,1828.3729,189.761,109.17,274.94,C6H14S2,"1,4-hexanedithiol",---,252.15,Yaw
CCCC(S)CCS,2,4.170486407719209,1802.6064,190.317,107.57,275.54,C6H14S2,"1,3-hexanedithiol",---,252.15,Yaw
CCCCC(S)CS,2,4.106956407719209,1777.4305,190.873,105.97,276.14,C6H14S2,"1,2-hexanedithiol",---,252.15,Yaw
CCCCCSSC,2,4.676636407719209,1834.9989,200.464,79.37,218.91,C6H14S2,"2,3-dithiaoctane",72437-68-4,195.91,Yaw
CCCCSSCC,2,4.5213564077192085,1778.8463,201.521,76.33,219.97,C6H14S2,"3,4-dithiaoctane",63986-03-8,195.91,Yaw
CCCSSCCC,"1,2",3.8982764077192087,1461.9621,179.478,73.5,226.93,C6H14S2,"4,5-dithiaoctane",629-19-6,187.67,Yaw
CCCCSCSC,2,5.128426407719209,1998.0136,197.684,87.37,216.21,C6H14S2,"2,4-dithiaoctane",---,195.91,Yaw
CCCSCSCC,2,4.948826407719209,1933.2718,198.741,84.33,217.21,C6H14S2,"3,5-dithiaoctane",---,195.91,Yaw
CCSCCSCC,2,4.960866407719209,1923.0777,195.738,85.34,216.95,C6H14S2,"3,6-dithiaoctane",5395-75-5,195.91,Yaw
CC(C)SSC(C)C,"1,2",4.347256407719208,1662.4275,206.858,60.07,204.0,C6H14S2,"2,5-dimethyl-3,4-diathiahexane",4253-89-8,204.15,Yaw
CCSSC(C)(C)C,"1,2",4.088866407719209,1559.2574,206.492,54.7,205.16,C6H14S2,"2,2-dimethyl-3,4-dithiahexane",4151-69-3,195.91,Yaw
CCCSSC(C)C,"1,2",4.169826407719208,1603.8735,200.788,64.29,213.78,C6H14S2,"4-methyl-3,4-dithiaheptane",33672-51-4,195.91,Yaw
CSCCSCCSC,3,2.0117564077192087,487.38,-17.896,117.85,302.79,C6H14S3,"2,5,8-trithianonane",37460-04-1,250.66384357432062,ML
CC(C)[Te]C(C)C,3,5.442286407719209,2323.0,273.15,44.07,178.69,C6H14Te,diisopropyltelluride,51112-72-2,216.72710930132789,ML
CC[Al](CC)CC,"1,2",9.505646407719208,10700.0,891.17,46.48,268.73,C6H15Al,triethyl aluminum,97-93-8,220.65,Yaw
CC[Si](Cl)(CC)CC,3,4.2900564077192085,1596.93,227.74,-4.15,172.59,C6H15ClSi,chlorotriethylsilane,994-30-9,220.43305078561082,ML
CC[Sn](Cl)(CC)CC,3,3.969846407719209,1490.44,167.44,59.85,238.81,C6H15ClSn,triethyltin chloride,994-31-0,288.65,Yaw
CCO[Si](F)(OCC)OCC,3,5.159186407719208,2104.0,273.15,16.85,159.94,C6H15FO3Si,triethoxyfluorosilane,358-60-1,178.04360014575377,ML
CC[Si](F)(CC)CC,3,4.100626407719209,1352.1,219.73,6.32,136.12,C6H15FSi,triethylfluorosilane,358-43-0,196.97849296257752,ML
CC[In](CC)CC,3,5.118666407719209,2340.0,273.15,61.16,212.56,C6H15In,triethyl indium,923-34-2,241.25,Yaw
CCCCCCN,"1,2",4.573596407719209,1610.2021,222.214,27.26,154.66,C6H15N,hexylamine,111-26-2,251.85,Yaw
CCCCC(C)N,"1,2",4.800206407719209,1419.8728,179.794,32.73,135.79,C6H15N,2-aminohexane,5329-79-3,254.15,Yaw
CCCC(N)CC,2,5.7078264077192085,1929.2436,218.362,35.87,138.46,C6H15N,3-aminohexane,16751-58-9,232.45,Yaw
CCCC(C)CN,2,5.171886407719208,1760.7073,220.8,28.85,140.68,C6H15N,1-amino-2-methylpentane,13364-16-4,232.45,Yaw
CCC(C)CCN,2,4.909616407719208,1678.0402,222.148,24.97,141.96,C6H15N,1-amino-3-methylpentane,42245-37-4,232.45,Yaw
CC(C)CCCN,"1,2",4.137496407719208,1261.0084,181.475,28.05,147.21,C6H15N,1-amino-4-methylpentane,5344-20-7,178.75,Yaw
CCCC(C)(C)N,"1,2",4.091256407719209,1174.9802,185.343,11.4,124.66,C6H15N,2-amino-2-methylpentane,53310-02-4,232.45,Yaw
CCC(C)C(C)N,2,5.678806407719209,1920.13,218.484,35.51,138.56,C6H15N,2-amino-3-methylpentane,35399-81-6,232.45,Yaw
CC(C)CC(C)N,"1,2",4.034726407719209,1186.0494,184.91,15.59,132.75,C6H15N,2-amino-4-methylpentane,108-09-8,232.45,Yaw
CCC(N)C(C)C,2,5.678806407719209,1920.13,218.484,35.51,138.56,C6H15N,3-amino-2-methylpentane,54287-41-1,232.45,Yaw
CCC(C)(N)CC,2,4.233666407719209,1265.9477,179.381,27.66,142.53,C6H15N,3-amino-3-methylpentane,3495-46-3,232.45,Yaw
CCC(C)(C)CN,2,3.749866407719209,1133.6675,182.684,18.65,146.03,C6H15N,"1-amino-2,2-dimethylbutane",41781-17-3,232.45,Yaw
CC(C)C(C)CN,2,3.5031964077192086,1070.296,185.882,12.91,148.36,C6H15N,"1-amino-2,3-dimethylbutane",66553-05-7,232.45,Yaw
CC(C)(C)CCN,2,5.527846407719208,1872.6976,219.138,33.63,139.15,C6H15N,"1-amino-3,3-dimethylbutane",15673-00-4,232.45,Yaw
CC(C)C(C)(C)N,2,3.513326407719209,1103.3105,194.398,10.14,149.07,C6H15N,"2-amino-2,3-dimethylbutane",4358-75-2,202.65,Yaw
CC(N)C(C)(C)C,"1,2",3.945676407719208,1132.0112,185.049,9.24,125.55,C6H15N,"2-amino-3,3-dimethyl butane",3850-30-4,253.15,Yaw
CCC(CC)CN,2,5.7078264077192085,1929.2436,218.362,35.87,138.46,C6H15N,1-amino-2-ethylbutane,617-79-8,232.45,Yaw
CCCCCNC,"1,2",4.156036407719209,1252.2501,184.309,23.13,140.53,C6H15N,methylpentylamine,25419-06-1,185.28,Yaw
CCCC(C)NC,2,4.977126407719209,1663.4336,224.578,17.98,131.15,C6H15N,methyl-1-methylbutylamine,51932-19-5,185.28,Yaw
CCC(C)CNC,2,4.977126407719209,1663.4336,224.578,17.98,131.15,C6H15N,methyl-2-methylbutylamine,90023-96-4,185.28,Yaw
CCC(CC)NC,"1,2",4.245066407719209,1230.6483,185.901,14.99,126.13,C6H15N,methyl-3-methylbutylamine,52317-98-3,185.28,Yaw
CCC(C)(C)NC,2,4.829636407719208,1617.8861,225.354,15.75,131.91,C6H15N,"methyl-1,1-dimethylpropylamine",---,185.28,Yaw
CNC(C)C(C)C,2,4.977126407719209,1663.4336,224.578,17.98,131.15,C6H15N,"methyl-1,2-dimethylpropylamine",34317-39-0,185.28,Yaw
CNCC(C)(C)C,2,4.829636407719208,1617.8861,225.354,15.75,131.91,C6H15N,"methyl-2,2-dimethylpropylamine",26153-91-3,185.28,Yaw
CCCCNCC,"1,2",4.083876407719209,1206.9042,186.679,15.66,132.37,C6H15N,ethylbutylamine,13360-63-9,185.28,Yaw
CCNC(C)CC,2,3.603986407719209,1075.0458,188.656,7.35,136.82,C6H15N,ethyl-sec-butylamine,21035-44-9,185.28,Yaw
CCNCC(C)C,"1,2",4.089226407719209,1170.1551,188.656,7.35,120.24,C6H15N,ethylisobutylamine,13205-60-2,185.28,Yaw
CCNC(C)(C)C,"1,2",3.6214364077192087,1009.1577,192.663,-9.25,111.26,C6H15N,ethyl-tert-butylamine,4432-77-3,185.28,Yaw
CCCNCCC,"1,2",4.439106407719208,1459.3006,218.887,12.02,133.76,C6H15N,di-propylamine,142-84-7,210.15,Yaw
CC(C)NC(C)C,"1,2",4.4495664077192085,1444.0078,240.678,-12.57,107.4,C6H15N,diisopropylamine,108-18-9,176.85,Yaw
CCCNC(C)C,"1,2",4.148856407719209,1182.728,188.573,7.58,118.8,C6H15N,propylisopropylamine,21968-17-2,185.28,Yaw
CCCN(C)CC,"1,2",3.996466407719209,1122.4926,189.371,1.62,114.38,C6H15N,methylethylpropylamine,4458-32-6,170.8,Yaw
CCN(C)C(C)C,"1,2",3.938706407719208,1103.0765,188.56,0.99,114.68,C6H15N,methylethylisopropylamine,39198-07-7,170.8,Yaw
CCCCN(C)C,"1,2",3.725646407719209,1035.6403,185.126,-0.4,117.28,C6H15N,dimethylbutylamine,927-62-8,170.8,Yaw
CCC(C)N(C)C,"1,2",3.9703464077192088,1116.0985,187.859,2.89,116.31,C6H15N,dimethyl-sec-butylamine,921-04-0,170.8,Yaw
CC(C)CN(C)C,"1,2",3.988596407719209,1082.933,191.507,-7.0,102.16,C6H15N,dimethylisobutylamine,7239-24-9,170.8,Yaw
CN(C)C(C)(C)C,"1,2",4.263116407719209,1141.6181,187.29,-1.48,100.85,C6H15N,dimethyl-tert-butylamine,918-02-5,183.15,Yaw
CCN(CC)CC,"1,2",3.622286407719209,919.4203,164.674,2.4,112.16,C6H15N,triethylamine,121-44-8,158.45,Yaw
NCCCCCCO,3,5.666166407719208,2324.9243,191.29,116.77,242.05,C6H15NO,6-aminohexanol,4048-33-3,331.0,Yaw
CC(C)CC(N)CO,3,4.217806407719209,1770.5032,200.742,89.57,251.29,C6H15NO,"2-amino-4-methyl-1-pentanol, ()",16369-17-8,317.15,Yaw
CCCCNCCO,"1,2",4.989706407719209,1994.5958,200.742,89.57,224.66,C6H15NO,2-(butylamino)ethanol,111-75-1,302.09,Yaw
CC(C)(C)NCCO,"1,2",4.990786407719209,1914.2041,206.997,44.0,201.17,C6H15NO,2-[tert-butylamino]ethanol,4620-70-6,317.15,Yaw
CCN(CC)CCO,"1,2",5.092536407719209,1893.4048,210.75,60.77,184.41,C6H15NO,2-diethylaminoethanol,100-37-8,253.0,Yaw
CC(C)CNCCO,3,4.217806407719209,1770.5032,200.742,89.57,251.29,C6H15NO,2-(isobutylamino)ethanol,17091-40-6,302.09,Yaw
CCCCC(N)CO,3,3.961296407719209,1671.6395,202.966,83.17,253.73,C6H15NO,DL-2-amino-1-hexanol,5665-74-7,302.09,Yaw
CN(C)C(C)(C)CO,3,3.1603664077192084,1360.887,211.584,19.0,264.36,C6H15NO,2-dimethylamino-2-methyl-1-propanol,7005-47-2,292.15,Yaw
CC(O)CC(C)(C)N,"1,2",4.993516407719208,1907.2481,207.595,69.85,198.85,C6H15NO,4-amino-4-methyl-2-pentanol,4404-98-2,302.09,Yaw