smiles,code,A [log10(atm)],B [C],C [C],TMIN [C],TMAX [C],FORMULA,NAME,CAS No,mp [K],mp_type
CC(C)CCC(=O)O,"1,2",3.9722964077192087,1156.437,92.276,105.3,222.72,C6H12O2,4-methylpentanoic acid,646-07-1,240.15,Yaw
CCC(C)(C)C(=O)O,"1,2",5.277236407719208,2011.7142,204.356,76.69,199.91,C6H12O2,"2,2-dimethylbutanoic acid",595-37-9,259.15,Yaw
CC(C)C(C)C(=O)O,2,4.887896407719208,1918.942,202.772,80.73,215.58,C6H12O2,"2,3-dimethylbutanoic acid",14287-61-7,272.35,Yaw
CC(C)(C)CC(=O)O,"1,2",4.833236407719209,1888.8026,203.244,78.08,213.51,C6H12O2,"3,3-dimethylbutanoic acid",1070-83-3,279.65,Yaw
CCC(CC)C(=O)O,"1,2",5.034576407719209,1946.1024,199.698,81.72,211.43,C6H12O2,2-ethylbutanoic acid,88-09-5,258.15,Yaw
CCCCCOC=O,"1,2",5.169476407719209,1777.3435,218.965,33.13,146.11,C6H12O2,pentyl formate,638-49-3,199.65,Yaw
CCCC(C)OC=O,2,4.914936407719209,1667.3588,222.023,23.33,139.35,C6H12O2,1-methylbutyl formate,58368-66-4,189.65,Yaw
CCC(C)COC=O,2,4.914936407719209,1667.3588,222.023,23.33,139.35,C6H12O2,2-methylbutyl formate,35073-27-9,189.65,Yaw
CCC(C)(C)OC=O,2,4.497526407719208,1538.1956,224.789,16.37,141.75,C6H12O2,"1,1-dimethylpropyl formate",757-88-0,189.65,Yaw
CC(C)C(C)OC=O,2,4.434896407719209,1516.7773,224.789,15.37,142.13,C6H12O2,"1,2-dimethylpropyl formate",66794-46-5,189.65,Yaw
CC(C)(C)COC=O,2,4.434896407719209,1516.7773,224.789,15.37,142.13,C6H12O2,"2,2-dimethylpropyl formate",23361-67-3,189.65,Yaw
CC(C)CCOC=O,"1,2",4.7348764077192085,1635.4933,221.565,25.65,147.3,C6H12O2,3-methylbutyl formate,110-45-2,179.65,Yaw
CCC(CC)OC=O,2,4.744476407719208,1613.951,222.955,20.65,140.27,C6H12O2,1-ethylpropyl formate,58368-67-5,189.65,Yaw
CCCCOC(C)=O,"1,2",4.364096407719209,1518.3865,222.077,21.06,151.63,C6H12O2,butyl acetate,123-86-4,199.65,Yaw
CCC(C)OC(C)=O,"1,2",4.449166407719209,1541.432,234.604,8.91,136.99,C6H12O2,sec-butyl acetate,105-46-4,174.15,Yaw
CC(=O)OCC(C)C,"1,2",4.531256407719209,1582.6362,232.421,14.4,141.7,C6H12O2,isobutyl acetate,110-19-0,174.3,Yaw
CC(=O)OC(C)(C)C,"1,2",4.124606407719209,1313.3028,220.856,-2.17,122.62,C6H12O2,tert-butyl acetate,540-88-5,182.7,Yaw
CCCOC(=O)CC,"1,2",4.504456407719209,1553.4048,222.009,21.27,147.55,C6H12O2,propyl propanoate,106-36-5,197.25,Yaw
CCC(=O)OC(C)C,"1,2",4.510186407719209,1513.0967,225.484,11.27,133.99,C6H12O2,isopropyl propanoate,637-78-5,197.25,Yaw
CCCC(=O)OCC,"1,2",4.491396407719209,1541.1652,222.287,19.57,145.5,C6H12O2,ethyl butanoate,105-54-4,175.15,Yaw
CCOC(=O)C(C)C,"1,2",4.4345064077192085,1489.001,225.526,10.25,134.7,C6H12O2,ethyl isobutanoate,97-62-1,185.0,Yaw
CCCCC(=O)OC,"1,2",4.092756407719208,1463.1497,220.647,24.29,165.23,C6H12O2,methyl pentanoate,624-24-8,182.15,Yaw
COC(=O)CC(C)C,"1,2",4.4206164077192085,1505.9564,223.816,15.17,141.74,C6H12O2,methyl isopentanoate,556-24-1,182.15,Yaw
CCC(C)C(=O)OC,"1,2",4.4353264077192085,1507.4932,223.983,14.69,140.65,C6H12O2,methyl sec-pentanoate,868-57-5,182.15,Yaw
COC(=O)C(C)(C)C,"1,2",4.446426407719208,1462.9107,227.959,3.25,124.94,C6H12O2,methyl tert-pentanoate,598-98-1,182.15,Yaw
OOC1CCCCC1,"1,2",5.031246407719209,2068.5958,194.3,104.97,243.02,C6H12O2,cyclohexyl peroxide,766-07-4,253.15,Yaw
CC(=O)CC(C)(C)O,"1,2",5.745116407719209,2568.7558,279.12,57.73,192.72,C6H12O2,diacetone alcohol,123-42-2,229.15,Yaw
CCOCCOC(C)=O,"1,2",4.3526964077192085,1477.693,182.899,54.16,181.81,C6H12O3,2-ethoxyethyl acetate,111-15-9,211.45,Yaw
O=C(O)CCCCCO,3,3.714266407719209,1280.6034,160.705,60.85,214.48,C6H12O3,hydroxycaproic acid,1191-25-9,313.15,Yaw
CC1OC(C)OC(C)O1,"1,2",4.382076407719208,1471.154,211.721,12.6,148.76,C6H12O3,paraldehyde,123-63-7,285.75,Yaw
CCC(C)OC(=O)CO,"1,2",5.041696407719209,2068.5142,232.782,66.03,203.55,C6H12O3,sec-butyl glycolate,37160-61-5,247.06848010896576,ML
C1CCCSCC1,"1,2",9.39849640771921,8628.7215,744.546,20.46,203.93,C6H12S,thiacycloheptane,4753-80-4,292.14,Yaw
CCC1CCCS1,2,3.793786407719209,1440.7141,212.418,41.47,200.07,C6H12S,2-ethylthiacyclopentane,1551-32-2,190.28,Yaw
CCC1CCSC1,2,4.0627664077192085,1533.8253,210.194,47.87,197.55,C6H12S,3-ethylthiacyclopentane,62184-67-2,190.28,Yaw
CC1(C)CCCS1,2,3.0032964077192084,1165.6702,220.792,17.87,210.58,C6H12S,"2,2-dimethylthiacyclopentane",5161-75-1,190.28,Yaw
CC1(C)CCSC1,2,3.0032964077192084,1165.6702,220.792,17.87,210.58,C6H12S,"3,3-dimethylthiacyclopentane",5161-76-2,190.28,Yaw
CC1CCCCS1,2,3.653706407719208,1406.968,217.742,36.48,201.91,C6H12S,2-methylthiacyclohexane,5161-16-0,215.01,Yaw
CC1CCCSC1,2,3.7996464077192087,1459.3349,216.733,40.17,200.38,C6H12S,3-methylthiacyclohexane,5258-50-4,212.98,Yaw
CC1CCSCC1,2,3.815946407719209,1464.057,216.33,40.67,200.2,C6H12S,4-methylthiacyclohexane,5161-17-1,245.05,Yaw
SC1CCCCC1,"1,2",3.9895164077192087,1471.1553,209.705,40.9,189.15,C6H12S,cyclohexanethiol,1569-69-3,189.64,Yaw
CCCCCCBr,"1,2",4.647166407719209,1713.6014,212.891,49.61,181.39,C6H13Br,1-bromohexane,111-25-1,188.45,Yaw
CCCCC(C)Br,2,4.5193864077192085,1641.9711,216.06,40.49,173.18,C6H13Br,2-bromohexane,3377-86-4,228.93,Yaw
CCCC(Br)CC,"1,2",4.640086407719209,1664.0867,216.783,38.41,166.73,C6H13Br,3-bromohexane,3377-87-5,228.93,Yaw
CCCC(C)CBr,2,4.523696407719209,1643.4109,216.032,40.57,173.16,C6H13Br,1-bromo-2-methylpentane,25346-33-2,228.93,Yaw
CCC(C)CCBr,2,4.701516407719208,1702.7859,214.92,43.77,172.03,C6H13Br,1-bromo-3-methylpentane,51116-73-5,228.93,Yaw
CC(C)CCCBr,2,4.656036407719209,1687.6084,215.198,42.97,172.31,C6H13Br,1-bromo-4-methylpentane,626-88-0,228.93,Yaw
CCCC(C)(C)Br,2,4.012876407719209,1472.3409,219.646,30.17,177.01,C6H13Br,2-bromo-2-methylpentane,4283-80-1,228.93,Yaw
CCC(C)C(C)Br,2,4.012876407719209,1472.3409,219.646,30.17,177.01,C6H13Br,2-bromo-3-methylpentane,62168-41-6,228.93,Yaw
CC(C)CC(C)Br,"1,2",4.643786407719209,1629.9504,219.646,30.17,155.68,C6H13Br,2-bromo-4-methylpentane,30310-22-6,178.95,Yaw
CCC(Br)C(C)C,2,4.012876407719209,1472.3409,219.646,30.17,177.01,C6H13Br,3-bromo-2-methylpentane,4283-83-4,228.93,Yaw
CCC(C)(Br)CC,2,3.9773164077192087,1460.3995,219.924,29.37,177.32,C6H13Br,3-bromo-3-methylpentane,25346-31-0,180.95,Yaw
CCC(C)(C)CBr,2,4.3562164077192085,1587.4145,217.144,37.37,174.31,C6H13Br,"1-bromo-2,2-dimethylbutane",62168-42-7,228.93,Yaw
CC(C)C(C)CBr,2,4.3562164077192085,1587.4145,217.144,37.37,174.31,C6H13Br,"1-bromo-2,3-dimethylbutane",30540-31-9,228.93,Yaw
CC(C)(C)CCBr,2,4.236886407719209,1547.4607,217.978,34.97,175.19,C6H13Br,"1-bromo-3,3-dimethylbutane",1647-23-0,228.93,Yaw
CC(C)C(C)(C)Br,2,4.0854764077192085,1496.7059,219.09,25.0,176.4,C6H13Br,"2-bromo-2,3-dimethylbutane",594-52-5,298.15,Yaw
CC(Br)C(C)(C)C,2,4.048926407719208,1484.442,219.368,25.0,176.7,C6H13Br,"2-bromo-3,3-dimethylbutane",26356-06-9,298.15,Yaw
CCC(CC)CBr,"1,2",4.654566407719209,1674.6056,216.227,40.01,168.43,C6H13Br,1-bromo-2-ethylbutane,3814-34-4,228.93,Yaw
CCCCCCCl,"1,2",4.752406407719208,1677.8823,218.509,34.44,158.43,C6H13Cl,1-chlorohexane,544-10-5,179.15,Yaw
CCCCC(C)Cl,"1,2",4.455556407719208,1566.1119,221.592,25.57,155.37,C6H13Cl,2-chlorohexane,638-28-8,238.05,Yaw
CCCC(Cl)CC,"1,2",4.729656407719209,1630.4076,221.87,24.77,146.28,C6H13Cl,3-chlorohexane,2346-81-8,238.05,Yaw
CCCC(C)CCl,2,4.529566407719209,1571.0198,222.704,22.37,148.82,C6H13Cl,1-chloro-2-methylpentane,14753-05-0,238.05,Yaw
CCC(C)CCCl,2,4.967896407719208,1710.6171,220.202,29.57,146.34,C6H13Cl,1-chloro-3-methylpentane,62016-93-7,238.05,Yaw
CC(C)CCCCl,2,4.765106407719209,1646.0912,221.314,26.37,147.43,C6H13Cl,1-chloro-4-methylpentane,62016-94-8,238.05,Yaw
CCCC(C)(C)Cl,"1,2",4.742676407719209,1593.8595,225.067,15.57,133.78,C6H13Cl,2-chloro-2-methylpentane,4325-48-8,238.05,Yaw
CCC(C)C(C)Cl,2,4.113766407719209,1436.524,225.067,14.57,151.7,C6H13Cl,2-chloro-3-methylpentane,24319-09-3,238.05,Yaw
CC(C)CC(C)Cl,2,4.229296407719208,1475.1041,224.65,16.77,150.86,C6H13Cl,2-chloro-4-methylpentane,25346-32-1,238.05,Yaw
CCC(Cl)C(C)C,2,4.172906407719209,1455.4377,224.65,15.77,151.25,C6H13Cl,3-chloro-2-methylpentane,38384-05-3,238.05,Yaw
CCC(C)(Cl)CC,2,4.3540564077192085,1514.9888,223.816,19.17,149.98,C6H13Cl,3-chloro-3-methylpentane,918-84-3,238.05,Yaw
CCC(CC)CCl,2,4.814556407719208,1661.8318,221.036,27.17,147.15,C6H13Cl,1-chloro-2-ethylbutane,4737-41-1,238.05,Yaw
CCC(C)(C)CCl,2,4.396926407719208,1528.6817,223.538,19.97,149.68,C6H13Cl,"1-chloro-2,2-dimethylbutane",6366-35-4,238.05,Yaw
CC(C)C(C)CCl,2,4.621526407719209,1600.3452,222.148,23.97,148.26,C6H13Cl,"1-chloro-2,3-dimethylbutane",600-06-6,238.05,Yaw
CC(C)(C)CCCl,"1,2",4.816926407719208,1630.9562,223.538,19.97,137.62,C6H13Cl,"1-chloro-3,3-dimethylbutane",2855-08-5,238.05,Yaw
CC(C)C(C)(C)Cl,"1,2",4.715706407719209,1589.0898,224.928,-10.4,135.03,C6H13Cl,"2-chloro-2,3-dimethylbutane",594-57-0,262.75,Yaw
CC(Cl)C(C)(C)C,"1,2",4.767506407719209,1598.0995,225.206,-0.9,132.59,C6H13Cl,"2-chloro-3,3-dimethylbutane",5750-00-5,272.25,Yaw
CCCCCCS(=O)(=O)Cl,3,4.488976407719209,1900.228,189.069,109.25,264.67,C6H13ClO2S,1-hexanesulfonyl chloride,14532-24-2,259.1918739623124,ML
CCN(CCCl)CCCl,3,3.433556407719209,1901.3021,273.15,84.62,333.81,C6H13Cl2N,bis(2-chloroethyl)ethylamine,538-07-8,239.25,Yaw
CCCCCCF,"1,2",4.303666407719208,1386.5439,230.627,-6.43,115.78,C6H13F,1-fluorohexane,373-14-8,170.15,Yaw
CCCCC(C)F,2,4.226076407719209,1352.2528,232.101,-10.67,112.42,C6H13F,2-fluorohexane,372-54-3,169.15,Yaw
CCCC(F)CC,2,4.083796407719209,1310.4736,233.018,-13.31,113.41,C6H13F,3-fluorohexane,52688-75-2,169.15,Yaw
CCCC(C)CF,2,4.046276407719208,1299.4448,233.268,-14.03,113.69,C6H13F,1-fluoro-2-methylpentane,62127-27-9,169.48,Yaw
CCC(C)CCF,2,4.261726407719209,1362.7113,231.878,-10.03,112.18,C6H13F,1-fluoro-3-methylpentane,62127-28-0,169.48,Yaw
CC(C)CCCF,2,4.130396407719209,1324.1622,232.712,-12.43,113.08,C6H13F,1-fluoro-4-methylpentane,62127-29-1,169.48,Yaw
CCCC(C)(C)F,2,3.841356407719209,1239.1363,234.7,-18.15,115.31,C6H13F,2-fluoro-2-methylpentane,62127-30-4,169.48,Yaw
CCC(C)C(C)F,2,3.841356407719209,1239.1363,234.7,-18.15,115.31,C6H13F,2-fluoro-3-methylpentane,62127-31-5,169.48,Yaw
CC(C)CC(C)F,2,3.841356407719209,1239.1363,234.7,-18.15,115.31,C6H13F,2-fluoro-4-methylpentane,62127-32-6,169.48,Yaw
CCC(F)C(C)C,2,3.662426407719209,1186.3545,236.048,-22.03,116.89,C6H13F,3-fluoro-2-methylpentane,62127-33-7,169.48,Yaw
CCC(C)(F)CC,2,3.485756407719209,1134.1167,237.48,-26.15,118.63,C6H13F,3-fluoro-3-methylpentane,19031-61-9,169.48,Yaw
CCC(C)(C)CF,2,3.841356407719209,1239.1363,234.7,-18.15,115.31,C6H13F,"1-fluoro-2,2-dimethylbutane",62127-34-8,169.48,Yaw
CC(C)C(C)CF,2,4.005196407719208,1287.3669,233.546,-14.83,114.0,C6H13F,"1-fluoro-2,3-dimethylbutane",62127-35-9,169.48,Yaw
CC(C)(C)CCF,2,3.797756407719208,1226.2855,235.02,-19.07,115.68,C6H13F,"1-fluoro-3,3-dimethylbutane",371-64-2,169.48,Yaw
CC(C)C(C)(C)F,2,3.485756407719209,1134.1167,237.48,-26.15,118.63,C6H13F,"2-fluoro-2,3-dimethylbutane",354-09-6,169.48,Yaw
CC(F)C(C)(C)C,2,3.592266407719209,1165.6249,236.604,-23.63,117.56,C6H13F,"2-fluoro-3,3-dimethylbutane",92089-78-6,169.48,Yaw
CCC(CC)CF,2,3.2436064077192084,1062.2924,239.626,-32.33,121.38,C6H13F,1-fluoro-2-ethylbutane,---,169.48,Yaw
CCCCCCI,"1,2",4.467976407719209,1721.083,205.655,65.43,207.38,C6H13I,1-iodohexane,638-45-9,205.0,Yaw
CCCCC(C)I,2,4.185506407719209,1605.4661,209.082,55.57,204.22,C6H13I,2-iodohexane,59654-13-6,205.0,Yaw
CCCC(I)CC,2,4.1493364077192085,1592.7465,209.36,54.77,204.52,C6H13I,3-iodohexane,31294-91-4,205.0,Yaw
CCCC(C)CI,2,4.1493364077192085,1592.7465,209.36,54.77,204.52,C6H13I,1-iodo-2-methylpentane,31294-94-7,205.0,Yaw
CCC(C)CCI,2,4.373896407719209,1671.6493,207.692,59.57,202.74,C6H13I,1-iodo-3-methylpentane,24346-53-0,205.0,Yaw
CC(C)CCCI,2,4.339026407719208,1659.4072,207.943,58.85,203.01,C6H13I,1-iodo-4-methylpentane,6196-80-1,205.0,Yaw
CCCC(C)(C)I,2,4.339026407719208,1659.4072,207.943,58.85,203.01,C6H13I,2-iodo-2-methylpentane,31294-95-8,205.0,Yaw
CCC(C)C(C)I,2,4.339026407719208,1659.4072,207.943,58.85,203.01,C6H13I,2-iodo-3-methylpentane,24319-07-1,205.0,Yaw
CC(C)CC(C)I,2,3.781216407719208,1463.001,212.418,45.97,207.96,C6H13I,2-iodo-4-methylpentane,31294-96-9,205.0,Yaw
CCC(I)C(C)C,2,3.781216407719208,1463.001,212.418,45.97,207.96,C6H13I,3-iodo-2-methylpentane,31294-97-0,205.0,Yaw
CCC(C)(I)CC,2,3.781216407719208,1463.001,212.418,45.97,207.96,C6H13I,3-iodo-3-methylpentane,24319-05-2,205.0,Yaw
CCC(C)(C)CI,2,3.781216407719208,1463.001,212.418,45.97,207.96,C6H13I,"1-iodo-2,2-dimethylbutane",31294-98-1,205.0,Yaw
CC(C)C(C)CI,2,4.043676407719208,1555.5606,210.194,52.37,205.44,C6H13I,"1-iodo-2,3-dimethylbutane",31295-00-8,205.0,Yaw
CC(C)(C)CCI,2,3.975516407719208,1531.5495,210.75,50.77,206.06,C6H13I,"1-iodo-3,3-dimethylbutane",15672-88-5,205.0,Yaw
CC(C)C(C)(C)I,2,3.975516407719208,1531.5495,210.75,50.77,206.06,C6H13I,"2-iodo-2,3-dimethylbutane",594-59-2,205.0,Yaw
CC(I)C(C)(C)C,2,3.812586407719208,1474.0787,212.14,46.77,207.64,C6H13I,"2-iodo-3,3-dimethylbutane",24556-56-7,205.0,Yaw
CCC(CC)CI,2,4.078436407719209,1567.7969,209.916,53.17,205.13,C6H13I,1-iodo-2-ethylbutane,---,205.0,Yaw
NC1CCCCC1,"1,2",4.511126407719209,1654.7534,232.966,25.92,160.08,C6H13N,cyclohexylamine,108-91-8,255.45,Yaw
CC1(N)CCCC1,2,3.949126407719208,1414.3217,222.426,20.17,165.26,C6H13N,1-methylcyclopentanamine,40571-45-7,215.9590044742864,ML
CC1CCCC1N,2,4.021816407719209,1438.1183,221.87,21.77,164.64,C6H13N,2-methylcyclopentanamine,41223-14-7,245.6328673505659,ML
C1CCCNCC1,"1,2",4.1546864077192085,1427.9941,205.657,30.94,164.9,C6H13N,hexamethyleneimine,111-49-9,236.15,Yaw
CC1CCCN1C,3,4.720356407719208,1578.6686,223.729,15.42,133.49,C6H13N,"1,2-dimethylpyrrolidine",765-48-0,192.77837525120012,ML
CC1(C)CCCN1,3,3.191926407719208,1188.3731,226.596,7.67,184.48,C6H13N,"2,2-dimethylpyrrolidine",35018-15-6,243.49458525419382,ML
CC1CNC(C)C1,3,3.463796407719209,1279.9611,223.816,15.67,180.88,C6H13N,"2,4-dimethylpyrrolidine",13603-04-8,235.86647178981147,ML
C[C@H]1CC[C@@H](C)N1,3,3.2047764077192085,1192.709,226.457,8.07,184.29,C6H13N,"cis-2,5-dimethylpyrrolidine",39713-71-8,268.8738353747621,ML
CCN1CCCC1,3,4.192006407719209,1416.3169,227.152,6.07,136.85,C6H13N,1-ethylpyrrolidine,7335-06-0,210.4542240664508,ML
C=CCNC(C)C,2,3.5405964077192085,1256.7233,229.237,2.57,158.69,C6H13N,N-isopropyl-2-propen-1-amine,35000-22-7,199.49667015125877,ML
C=CCNCCC,2,4.074476407719208,1428.6643,224.928,14.97,153.68,C6H13N,N-propyl-2-propen-1-amine,5666-21-7,185.89287292140088,ML
CN1CCCCC1,"1,2",4.1725164077192085,1390.9838,226.318,3.47,132.97,C6H13N,1-methylpiperidine,626-67-5,170.45,Yaw
CC1CCCCN1,2,4.740936407719208,1559.6222,223.26,-2.5,128.01,C6H13N,"2-methylpiperidine, ()",3000-79-1,270.65,Yaw
CC1CCCNC1,2,5.150466407719209,1683.6066,221.175,18.27,126.0,C6H13N,"3-methylpiperidine, ()",53152-98-0,249.15,Yaw
CC1CCNCC1,"1,2",4.450676407719208,1530.9179,219.924,21.87,149.0,C6H13N,4-methylpiperidine,626-58-4,241.46,Yaw
CC1CCC(C)N1,3,3.323806407719209,1232.8514,225.206,11.67,182.65,C6H13N,"2,5-dimethylpyrrolidine, cis and trans",3378-71-0,255.29486209558024,ML
C=C(C)CNCC,"1,2",4.641366407719208,1539.977,226.944,9.17,127.86,C6H13N,N-ethyl-2-methylallylamine,18328-90-0,211.5157095146544,ML
C[C@H]1CCCCN1,2,4.792476407719208,1575.2447,222.982,13.07,127.74,C6H13N,(S)-(+)-2-methylpiperidine,3197-42-0,241.46,Yaw
C=C(C)CN(C)C,2,5.892706407719208,1882.3552,223.729,18.42,112.91,C6H13N,"N,N,2-trimethylpropenylamine",6000-82-4,216.2530023332777,ML
CCCCNC(C)=O,"1,2",4.753546407719209,2003.3926,192.402,109.57,257.54,C6H13NO,N-butylacetamide,1119-49-9,299.15689065393394,ML
CCN(CC)C(C)=O,"1,2",4.806426407719209,1867.5133,204.495,74.77,210.01,C6H13NO,"N,N-diethylacetamide",685-91-6,252.2780273072341,ML
CCCCCC[N+](=O)[O-],2,4.557536407719208,1799.1404,202.271,77.17,220.41,C6H13NO2,1-nitrohexane,646-14-0,296.65,Yaw
CCCCC(C)[N+](=O)[O-],2,3.9312864077192087,1571.0473,207.136,63.17,225.63,C6H13NO2,2-nitrohexane,14255-44-8,296.65,Yaw
CCCC(CC)[N+](=O)[O-],2,3.9312864077192087,1571.0473,207.136,63.17,225.63,C6H13NO2,3-nitrohexane,7286-40-0,296.65,Yaw
CCCC(C)C[N+](=O)[O-],2,3.832686407719208,1535.0004,208.012,60.65,226.63,C6H13NO2,1-nitro-2-methylpentane,---,296.65,Yaw
CCC(C)CC[N+](=O)[O-],2,3.832686407719208,1535.0004,208.012,60.65,226.63,C6H13NO2,1-nitro-3-methylpentane,---,296.65,Yaw
CC(C)CCC[N+](=O)[O-],2,3.832686407719208,1535.0004,208.012,60.65,226.63,C6H13NO2,1-nitro-4-methyl pentane,---,296.65,Yaw
CCCC(C)(C)[N+](=O)[O-],2,3.832686407719208,1535.0004,208.012,60.65,226.63,C6H13NO2,2-nitro-2-methylpentane,---,296.65,Yaw
CCC(C)C(C)[N+](=O)[O-],2,3.746666407719209,1503.5189,208.804,23.5,227.55,C6H13NO2,2-nitro-3-methylpentane,42202-42-6,296.65,Yaw
CC(C)CC(C)[N+](=O)[O-],2,3.742226407719208,1501.8907,208.846,58.25,227.6,C6H13NO2,2-nitro-4-methylpentane,---,296.65,Yaw
CCC(C(C)C)[N+](=O)[O-],2,3.742226407719208,1501.8907,208.846,58.25,227.6,C6H13NO2,3-nitro-2-methylpentane,---,296.65,Yaw
CCC(C)(CC)[N+](=O)[O-],2,3.742226407719208,1501.8907,208.846,58.25,227.6,C6H13NO2,3-nitro-3-methylpentane,---,296.65,Yaw
CCC(C)(C)C[N+](=O)[O-],2,3.717176407719209,1492.7172,209.082,23.5,227.88,C6H13NO2,"1-nitro-2,2-dimethylbutane",2625-29-8,296.65,Yaw
CC(C)C(C)C[N+](=O)[O-],2,3.9312864077192087,1571.0473,207.136,63.17,225.63,C6H13NO2,"1-nitro-2,3-dimethylbutane",66553-34-2,296.65,Yaw
CC(C)(C)CC[N+](=O)[O-],2,3.802166407719208,1523.8348,208.29,59.85,226.95,C6H13NO2,"1-nitro-3,3-dimethylbutane",---,296.65,Yaw
CC(C)C(C)(C)[N+](=O)[O-],"1,2",4.326086407719209,1655.0843,209.082,57.57,202.11,C6H13NO2,"2-nitro-2,3-dimethylbutane",34075-28-0,280.15,Yaw
CC([N+](=O)[O-])C(C)(C)C,2,3.547316407719209,1430.4222,210.75,40.0,229.88,C6H13NO2,"2-nitro-3,3-dimethylbutane",599-02-0,313.15,Yaw
CCC(CC)C[N+](=O)[O-],2,3.802166407719208,1523.8348,208.29,59.85,226.95,C6H13NO2,1-nitro-2-ethylbutane,---,296.65,Yaw
CCCCCCO[N+](=O)[O-],2,4.262906407719209,1644.6522,208.526,59.17,206.59,C6H13NO3,1-hexyl nitrate,20633-11-8,273.15,Yaw
CCCCCC,"1,2",4.108966407719208,1216.9154,227.451,-24.29,92.12,C6H14,hexane,110-54-3,177.83,Yaw
CCCC(C)C,"1,2",4.198806407719209,1274.6389,243.362,-33.7,83.66,C6H14,2-methylpentane,107-83-5,119.6,Yaw
CCC(C)CC,"1,2",4.196926407719209,1282.3647,242.278,-31.28,86.88,C6H14,3-methylpentane,96-14-0,110.25,Yaw
CCC(C)(C)C,"1,2",4.058726407719209,1169.514,238.418,-41.52,72.81,C6H14,"2,2-dimethylbutane",75-83-2,174.28,Yaw
CC(C)C(C)C,"1,2",4.1086564077192085,1220.0057,238.956,-35.26,81.46,C6H14,"2,3-dimethylbutane",79-29-8,145.19,Yaw
CC(C)OP(=O)(F)OC(C)C,3,7.841786407719208,3344.6,273.15,70.85,170.39,C6H14FO3P,isoflurophate,55-91-4,191.15,Yaw
CN1CCN(C)CC1,"1,2",4.738686407719209,1661.6012,219.646,-0.59,154.79,C6H14N2,"1,4-dimethylpiperazine",106-58-1,272.15,Yaw
CC1CNC(C)CN1,3,3.5207964077192084,1372.2955,211.028,43.02,215.18,C6H14N2,"cis-2,5-dimethylpiperazine",6284-84-0,292.05,Yaw
CCN1CCNCC1,"1,2",4.747126407719208,1753.6754,212.418,52.17,182.01,C6H14N2,1-ethylpiperazine,5308-25-8,213.25,Yaw
NCCCCC(N)C(=O)O,3,12.553776407719209,5084.9556,139.244,209.85,275.76,C6H14N2O2,lysine,56-87-1,498.0,Yaw
CCCCCCO,"1,2",4.485606407719208,1544.6108,187.498,55.12,181.62,C6H14O,1-hexanol,111-27-3,228.55,Yaw
CCCCC(C)O,"1,2",4.525036407719209,1482.7981,189.837,41.64,161.2,C6H14O,2-hexanol,626-93-7,223.0,Yaw
CCCC[C@H](C)O,"1,2",5.168496407719209,1837.9759,217.561,43.17,160.04,C6H14O,(S)-(+)-2-hexanol,52019-78-0,224.73,Yaw
CCCC(O)CC,"1,2",4.5978864077192085,1554.8516,204.317,35.68,157.54,C6H14O,3-hexanol,623-37-0,224.73,Yaw
CCCC(C)CO,"1,2",5.022276407719208,1846.5431,219.821,47.67,171.29,C6H14O,2-methyl-1-pentanol,105-30-6,224.73,Yaw
CCC(C)CCO,"1,2",4.327126407719208,1385.1013,167.247,55.87,176.78,C6H14O,3-methyl-1-pentanol,589-35-5,224.73,Yaw
CC(C)CCCO,"1,2",4.347806407719209,1334.3502,157.052,57.18,172.68,C6H14O,4-methyl-1-pentanol,626-89-1,224.73,Yaw
CC(C)CC(C)O,"1,2",4.672096407719208,1623.8747,215.719,32.09,155.79,C6H14O,4-methyl-2-pentanol,108-11-2,183.15,Yaw
CCCC(C)(C)O,"1,2",4.051766407719208,1107.0094,151.367,35.23,143.78,C6H14O,2-methyl-2-pentanol,590-36-3,171.15,Yaw
CCC(C)C(C)O,"1,2",4.311446407719209,1321.774,172.723,40.73,156.86,C6H14O,3-methyl-2-pentanol,565-60-6,224.73,Yaw