smiles,code,A [log10(atm)],B [C],C [C],TMIN [C],TMAX [C],FORMULA,NAME,CAS No,mp [K],mp_type
C=Cc1ccc(C)c(C)c1,2,4.318586407719208,1691.6769,202.572,70.31,218.5,C10H12,"4-ethenyl-1,2-dimethylbenzene",27831-13-6,232.75,Yaw
C=Cc1cccc(C)c1C,2,4.318586407719208,1691.6769,202.572,70.31,218.5,C10H12,"2,3-dimethylstyrene",40243-75-2,213.88,Yaw
CC=CCc1ccccc1,"1,2",4.2330464077192085,1622.046,207.136,58.17,205.39,C10H12,2-butenylbenzene,1560-06-1,231.72,Yaw
C=CCCc1ccccc1,"1,2",4.205696407719208,1617.9673,206.858,58.97,207.51,C10H12,3-butenylbenzene,768-56-9,203.15,Yaw
C=CCc1ccccc1C,"1,2",4.533306407719208,1723.4703,205.329,63.37,201.89,C10H12,1-methyl-2-allylbenzene,1587-04-8,231.72,Yaw
C=C(CC)c1ccccc1,"1,2",4.239856407719208,1643.0229,205.468,62.97,211.67,C10H12,(1-methylenepropyl)benzene,2039-93-2,231.72,Yaw
CC1CCc2ccccc21,3,2.978576407719209,1213.1681,203.15,46.5,249.94,C10H12,"2,3-dihydro-1-methyl-1H-indene",767-58-8,248.04304279231724,ML
CC1Cc2ccccc2C1,3,3.2672264077192086,1330.7351,203.15,55.34,245.48,C10H12,"2,3-dihydro-2-methyl-1H-indene",824-63-5,245.93954487275832,ML
Cc1cccc2c1CCC2,3,4.138586407719209,1685.6394,203.15,76.88,236.1,C10H12,"2,3-dihydro-4-methyl-1H-indene",824-22-6,258.4185688826456,ML
Cc1ccc2c(c1)CCC2,3,3.8073164077192088,1550.7126,203.15,69.47,239.12,C10H12,"2,3-dihydro-5-methyl-1H-indene",874-35-1,254.53387136140535,ML
CC/C=C/c1ccccc1,"1,2",4.252146407719208,1671.6118,203.272,69.29,219.8,C10H12,trans-1-butenylbenzene,824-90-8,230.15,Yaw
CC=Cc1ccc(OC)cc1,"1,2",4.4256364077192085,1923.3027,199.732,105.24,266.57,C10H12O,anethole,104-46-1,294.5,Yaw
C=CCc1ccc(OC)cc1,"1,2",4.962656407719209,2195.9232,226.939,93.94,244.12,C10H12O,1-methoxy-4-(2-propenyl)benzene,140-67-0,298.15,Yaw
CC(C)c1ccc(C=O)cc1,"1,2",4.821146407719208,2261.6095,233.552,103.9,266.79,C10H12O,4-isopropylbenzaldehyde,122-03-2,291.5961037355167,ML
C=CCc1ccc(O)c(OC)c1,"1,2",5.432806407719209,2767.3882,256.135,122.25,283.13,C10H12O2,4-allyl-2-methoxyphenol,97-53-0,265.65,Yaw
CC(=O)Oc1ccc(C)c(C)c1,"1,2",4.939366407719208,2394.4288,249.764,101.32,266.46,C10H12O2,"3,4-dimethylphenyl acetate",22618-23-1,295.15,Yaw
CCCOC(=O)c1ccccc1,"1,2",4.716926407719209,2189.6424,233.21,98.67,262.65,C10H12O2,propyl benzoate,2315-68-6,221.55,Yaw
CC=Cc1ccc(O)c(OC)c1,"1,2",5.820276407719209,3335.588,301.427,125.0,302.93,C10H12O2,isoeugenol,97-54-1,306.65,Yaw
CC(C)c1ccccc1C(=O)O,2,4.023486407719209,1904.1958,184.66,137.85,326.88,C10H12O2,2-isopropylbenzoic acid,2438-04-2,337.15,Yaw
CC(C)c1ccc(C(=O)O)cc1,"1,2",4.528416407719209,2067.0403,184.66,137.85,304.3,C10H12O2,4-isopropylbenzoic acid,536-66-3,390.65,Yaw
CC(=O)OCCc1ccccc1,"1,2",4.7988064077192085,2223.8586,230.819,102.11,263.62,C10H12O2,2-phenylethyl acetate,103-45-7,242.05,Yaw
CCCc1ccccc1C(=O)O,2,4.515646407719209,2116.8461,180.17,150.77,322.09,C10H12O2,2-propylbenzoic acid,2438-03-1,331.15,Yaw
CCCc1ccc(C(=O)O)cc1,2,3.9855064077192086,1886.221,184.66,136.87,327.28,C10H12O2,4-propylbenzoic acid,2438-05-3,416.15,Yaw
Cc1cc(C)c(C(=O)O)c(C)c1,2,3.894656407719209,1843.2222,184.66,134.49,328.25,C10H12O2,"2,4,6-trimethylbenzoic acid",480-63-7,427.15,Yaw
CC(C)c1cccc(C(=O)O)c1,2,4.023486407719209,1904.1958,184.66,137.85,326.88,C10H12O2,3-(1-methylethyl)benzoic acid,5651-47-8,324.7,Yaw
Cc1ccc(C(=O)O)c(C)c1C,2,4.023486407719209,1904.1958,184.66,137.85,326.88,C10H12O2,"2,3,4-trimethylbenzoic acid",1076-47-7,378.8,Yaw
Cc1cc(C(=O)O)cc(C)c1C,2,4.023486407719209,1904.1958,184.66,137.85,326.88,C10H12O2,"3,4,5-trimethylbenzoic acid",1076-88-6,378.8,Yaw
Cc1cc(C)c(C)c(C(=O)O)c1,2,4.023486407719209,1904.1958,184.66,137.85,326.88,C10H12O2,"2,3,5-trimethylbenzoic acid",2437-66-3,378.8,Yaw
Cc1ccc(C)c(C(=O)O)c1C,2,4.023486407719209,1904.1958,184.66,137.85,326.88,C10H12O2,"2,3,6-trimethylbenzoic acid",2529-36-4,378.8,Yaw
Cc1cc(C)c(C(=O)O)cc1C,2,3.9165764077192087,1853.6005,184.66,135.07,328.01,C10H12O2,"2,4,5-trimethylbenzoic acid",528-90-5,424.65,Yaw
C=CCOC(=O)C=CC(=O)OCC=C,"1,2",4.866686407719208,2167.2585,198.476,122.72,276.21,C10H12O4,diallyl maleate,999-21-3,226.15,Yaw
CC(C)(C)c1ccc(Br)cc1,"1,2",4.1730564077192085,1763.3537,191.707,99.57,263.7,C10H13Br,1-bromo-4-tert-butylbenzene,3972-65-4,292.15,Yaw
Cc1ccc(C(C)C)cc1Br,"1,2",4.154126407719208,1766.6603,190.929,101.81,267.58,C10H13Br,2-bromo-1-methyl-4-isopropylbenzene,2437-76-5,291.32,Yaw
CCCCc1ccc(Br)cc1,"1,2",4.112786407719208,1784.2811,188.288,109.41,279.81,C10H13Br,1-bromo-4-butylbenzene,41492-05-1,247.65,Yaw
Cc1cc(C)c(C)c(Br)c1C,2,3.882736407719209,1693.9355,190.308,103.6,282.63,C10H13Br,"1-bromo-2,3,5,6-tetramethylbenzene",1646-53-3,334.15,Yaw
Cc1ccc(C(C)C)c(Br)c1,3,4.965126407719208,2515.401,272.541,94.89,266.77,C10H13Br,3-bromo-4-isopropyltoluene,4478-10-8,264.82259122811666,ML
CC(C)(C)c1ccc(Cl)cc1,"1,2",4.2429464077192085,1730.6984,196.85,85.77,242.2,C10H13Cl,1-chloro-4-tert-butylbenzene,3972-56-3,309.15,Yaw
CC(C)(CCl)c1ccccc1,"1,2",4.194096407719209,1748.6039,194.07,93.77,255.09,C10H13Cl,"(2-chloro-1,1-dimethylethyl)benzene",515-40-2,309.15,Yaw
Cc1ccc(C(C)C)cc1Cl,"1,2",4.146266407719208,1714.3857,195.877,88.57,249.97,C10H13Cl,2-chloro-1-methyl-4-isopropylbenzene,4395-79-3,309.15,Yaw
Cc1ccc(C(C)C)c(Cl)c1,2,3.5613564077192086,1546.5888,196.016,88.17,278.35,C10H13Cl,2-chloro-4-methyl-1-isopropylbenzene,4395-80-6,309.15,Yaw
Cc1cc(C)c(CCl)c(C)c1,2,3.5902364077192086,1558.0114,195.704,89.07,277.97,C10H13Cl,a-2-chloroisodurene,1585-16-6,309.15,Yaw
ClCCCCc1ccccc1,2,3.5902364077192086,1558.0114,195.704,89.07,277.97,C10H13Cl,1-chloro-4-phenylbutane,4830-93-7,309.15,Yaw
COC(CCCl)c1ccccc1,3,4.313026407719208,2243.265,256.19,61.85,302.95,C10H13ClO,2-chloroethyl a-methylbenzyl ether,4446-91-7,269.19916309622675,ML
Cc1ccc(C(C)C)cc1I,2,4.085386407719208,1835.9773,181.88,125.85,303.27,C10H13I,2-iodo-1-methyl-4-isopropylbenzene,56739-95-8,351.15,Yaw
Cc1ccc(C(C)C)c(I)c1,2,4.085386407719208,1835.9773,181.88,125.85,303.27,C10H13I,2-iodo-4-methyl-1-isopropylbenzene,4395-81-7,351.15,Yaw
CC(C)(C)c1ccc(I)cc1,"1,2",4.940526407719209,2099.1312,181.88,125.85,270.57,C10H13I,1-tert-butyl-4-iodobenzene,35779-04-5,351.15,Yaw
CCCCc1ccc(I)cc1,2,4.085386407719208,1835.9773,181.88,125.85,303.27,C10H13I,1-(4'-iodophenyl)butane,20651-57-4,351.15,Yaw
Cc1cc(C)c(C)c(I)c1C,2,4.085386407719208,1835.9773,181.88,125.85,303.27,C10H13I,"2,3,5,6-tetramethyliodobenzene",2100-25-6,351.15,Yaw
CC(C)(C)c1cccc([N+](=O)[O-])c1,"1,2",4.505096407719209,1979.7734,185.452,124.57,285.47,C10H13NO2,1-tert-butyl-3-nitrobenzene,23132-52-7,274.15,Yaw
Cc1ccc(C(C)C)cc1[N+](=O)[O-],2,3.1991464077192084,1514.7956,191.754,106.44,330.93,C10H13NO2,1-methyl-4-isopropyl-2-nitrobenzene,943-15-7,274.15,Yaw
CCCCc1ccc([N+](=O)[O-])cc1,2,3.1991464077192084,1514.7956,191.754,106.44,330.93,C10H13NO2,1-butyl-4-nitrobenzene,20651-75-6,274.15,Yaw
CCCCc1cccc([N+](=O)[O-])c1,2,3.1991464077192084,1514.7956,191.754,106.44,330.93,C10H13NO2,1-butyl-3-nitrobenzene,20651-76-7,274.15,Yaw
CC(C)(C)c1ccccc1[N+](=O)[O-],2,3.1991464077192084,1514.7956,191.754,106.44,330.93,C10H13NO2,1-tert-butyl-4-nitrobenzene,1886-57-3,274.15,Yaw
CC(C)(C)c1ccc([N+](=O)[O-])cc1,2,3.1991464077192084,1514.7956,191.754,106.44,330.93,C10H13NO2,1-tert-butyl-2-nitrobenzene,3282-56-2,274.15,Yaw
CCCCc1ccccc1,"1,2",4.303906407719209,1720.3729,216.413,61.75,213.37,C10H14,butylbenzene,104-51-8,185.3,Yaw
CC(C)Cc1ccccc1,"1,2",4.348546407719208,1726.1806,224.166,52.94,202.31,C10H14,isobutylbenzene,538-93-2,221.7,Yaw
CCC(C)c1ccccc1,"1,2",4.026896407719208,1536.8039,208.305,51.83,204.16,C10H14,sec-butylbenzene,135-98-8,197.72,Yaw
CC(C)(C)c1ccccc1,"1,2",4.006256407719208,1509.5746,207.654,48.77,199.76,C10H14,tert-butylbenzene,98-06-6,215.27,Yaw
Cc1ccc(C(C)C)cc1,"1,2",4.3677364077192085,1674.544,207.039,60.95,204.73,C10H14,cymene,25155-15-1,205.25,Yaw
Cc1cccc(C(C)C)c1,"1,2",4.232356407719209,1675.8054,220.871,53.26,205.4,C10H14,m-cymene,535-77-3,209.44,Yaw
Cc1ccccc1C(C)C,"1,2",4.2322964077192085,1690.9979,221.366,55.25,208.77,C10H14,o-cymene,527-84-4,201.64,Yaw
CCCc1ccccc1C,"1,2",4.278246407719209,1680.5748,208.018,64.84,214.53,C10H14,1-methyl-2-propylbenzene,1074-17-5,212.95,Yaw
CCCc1cccc(C)c1,"1,2",4.2766364077192085,1671.7199,209.096,62.4,211.4,C10H14,1-methyl-3-propylbenzene,1074-43-7,190.57,Yaw
CCCc1ccc(C)cc1,"1,2",4.2954064077192085,1694.4236,211.173,63.17,213.03,C10H14,1-methyl-4-propylbenzene,1074-55-1,209.55,Yaw
CCc1ccccc1CC,"1,2",4.3728964077192085,1694.0433,205.496,65.39,210.54,C10H14,diethylbenzene,25340-17-4,221.32,Yaw
CCc1cccc(CC)c1,"1,2",4.2318264077192085,1687.9517,217.731,58.41,211.69,C10H14,m-diethylbenzene,141-93-5,189.26,Yaw
CCc1ccc(CC)cc1,"1,2",4.3297764077192085,1743.1904,218.815,61.87,213.87,C10H14,p-diethylbenzene,105-05-5,230.32,Yaw
CCc1cccc(C)c1C,"1,2",4.225646407719209,1715.4186,211.994,68.92,225.1,C10H14,3-ethyl-o-xylene,933-98-2,223.64,Yaw
CCc1ccc(C)c(C)c1,"1,2",4.346326407719209,1764.9406,216.296,67.13,220.0,C10H14,4-ethyl-o-xylene,934-80-5,206.22,Yaw
CCc1c(C)cccc1C,"1,2",4.328196407719209,1741.1228,212.235,68.18,220.11,C10H14,2-ethyl-m-xylene,2870-04-4,256.89,Yaw
CCc1ccc(C)cc1C,"1,2",4.4290164077192085,1843.9455,227.893,64.34,218.8,C10H14,4-ethyl-m-xylene,874-41-9,210.27,Yaw
CCc1cc(C)cc(C)c1,"1,2",4.346036407719208,1748.7722,218.603,62.24,213.73,C10H14,5-ethyl-m-xylene,934-74-7,188.82,Yaw
CCc1cc(C)ccc1C,"1,2",4.415546407719209,1826.5083,226.824,63.27,217.09,C10H14,2-ethyl-p-xylene,1758-88-9,219.52,Yaw
Cc1ccc(C)c(C)c1C,"1,2",4.3705264077192085,1809.8968,209.074,80.45,235.67,C10H14,"1,2,3,4-tetramethylbenzene",488-23-3,266.9,Yaw
Cc1cc(C)c(C)c(C)c1,"1,2",4.390356407719208,1818.377,216.175,73.78,228.49,C10H14,"1,2,3,5-tetramethylbenzene",527-53-7,249.46,Yaw
Cc1cc(C)c(C)cc1C,"1,2",4.396426407719209,1809.7533,214.802,73.5,227.1,C10H14,"1,2,4,5-tetramethylbenzene",95-93-2,352.38,Yaw
CC=C(C)C#CC(C)=CC,2,3.626816407719208,1454.9741,208.804,55.37,228.68,C10H14,"3,6-dimethyl-2,6-octadien-4-yne",3725-07-3,228.15,Yaw
CC(C)C#CC#CC(C)C,2,4.486176407719209,1804.758,204.927,78.53,226.3,C10H14,"2,7-dimethyl-3,5-octadiyne",14813-68-4,266.8,Yaw
C#CCCCCCCC#C,2,4.486176407719209,1804.758,204.927,78.53,226.3,C10H14,"1,9-decadiyne",1720-38-3,266.8,Yaw
CCCC#CC#CCCC,2,4.486176407719209,1804.758,204.927,78.53,226.3,C10H14,"4,6-decadiyne",16387-71-6,266.8,Yaw
CCOP(=O)(OCC)Sc1ccc([N+](=O)[O-])cc1,3,6.1189564077192085,3966.0,273.15,222.61,408.54,C10H14NO5PS,"O,O-diethyl-S-(4-nitrophenyl)thiophosphate",3270-86-8,342.39344745161253,ML
CCN(CC)c1ccc([N+](=O)[O-])cc1,3,3.1430264077192085,1654.4443,175.708,153.61,406.43,C10H14N2O2,"N,N-diethyl-4-nitroaniline",2216-15-1,350.65,Yaw
CCN(CC)c1cccc([N+](=O)[O-])c1,"1,2",4.573146407719209,2125.4067,175.708,153.61,321.8,C10H14N2O2,"N,N-diethyl-3-nitroaniline",2216-16-2,350.65,Yaw
CCCCc1cccc(O)c1,"1,2",4.706486407719209,2044.4876,187.398,122.97,276.68,C10H14O,3-butylphenol,4074-43-5,319.96,Yaw
CCCCc1ccc(O)cc1,"1,2",4.706806407719209,2048.0275,187.12,123.77,277.73,C10H14O,4-butylphenol,1638-22-8,295.15,Yaw
CC(C)Cc1ccccc1O,2,4.710856407719208,2010.9223,190.22,114.85,265.79,C10H14O,2-isobutylphenol,4167-75-3,294.15,Yaw
CC(C)Cc1cccc(O)c1,2,4.710856407719208,2010.9223,190.22,114.85,265.79,C10H14O,3-isobutylphenol,30749-25-8,319.96,Yaw
CC(C)Cc1ccc(O)cc1,"1,2",4.703166407719209,2009.0895,190.178,114.97,266.21,C10H14O,4-isobutylphenol,4167-74-2,324.15,Yaw
CCC(C)c1ccccc1O,"1,2",4.700086407719208,1977.2324,192.68,107.77,256.79,C10H14O,2-sec-butylphenol,89-72-5,289.15,Yaw
CCC(C)c1cccc(O)c1,2,4.710856407719208,2010.9223,190.22,114.85,265.79,C10H14O,3-sec-butylphenol,3522-86-9,319.96,Yaw
CCC(C)c1ccc(O)cc1,"1,2",4.704866407719209,2027.1424,188.761,119.05,271.55,C10H14O,4-sec-butylphenol,99-71-8,332.15,Yaw
CC(C)(C)c1ccccc1O,"1,2",4.698716407719209,1963.3573,193.77,104.63,252.68,C10H14O,2-tert-butylphenol,88-18-6,267.53,Yaw
CC(C)(C)c1cccc(O)c1,"1,2",4.7041664077192085,2019.7088,189.344,117.37,269.35,C10H14O,3-tert-butylphenol,585-34-2,314.15,Yaw
CC(C)(C)c1ccc(O)cc1,"1,2",4.704076407719208,2018.753,189.419,98.8,269.07,C10H14O,4-tert-butylphenol,98-54-4,371.95,Yaw
CCCc1cccc(O)c1C,2,4.912496407719209,2090.1653,188.83,118.85,264.42,C10H14O,2-methyl-3-propylphenol,66142-78-7,319.96,Yaw
CCCc1ccc(O)c(C)c1,"1,2",4.782586407719209,2050.7155,188.788,118.97,268.8,C10H14O,2-methyl-4-propylphenol,18441-56-0,316.15,Yaw
Cc1ccc(C(C)C)cc1O,2,4.912496407719209,2090.1653,188.83,118.85,264.42,C10H14O,2-methyl-5-propylphenol,499-75-2,319.96,Yaw
CCCc1cccc(C)c1O,2,4.912496407719209,2090.1653,188.83,118.85,264.42,C10H14O,2-methyl-6-propylphenol,---,319.96,Yaw
CCCc1c(C)cccc1O,2,5.877486407719209,2468.071,183.27,134.85,259.32,C10H14O,3-methyl-2-propylphenol,3228-01-1,303.10573196906444,ML
CCCc1ccc(O)cc1C,2,5.877486407719209,2468.071,183.27,134.85,259.32,C10H14O,3-methyl-4-propylphenol,30388-40-0,289.15,Yaw
CCCc1cc(C)cc(O)c1,"1,2",4.7100064077192085,2083.4272,184.34,131.77,288.2,C10H14O,3-methyl-5-propylphenol,36186-96-6,284.15,Yaw
CCCc1cc(C)ccc1O,2,6.676916407719208,2779.8765,179.692,145.15,256.31,C10H14O,4-methyl-2-propylphenol,4074-46-8,319.96,Yaw
CCCc1cc(O)ccc1C,2,6.676916407719208,2779.8765,179.692,145.15,256.31,C10H14O,4-methyl-3-propylphenol,---,319.96,Yaw
Cc1ccc(C(C)C)c(O)c1,2,6.676916407719208,2779.8765,179.692,145.15,256.31,C10H14O,5-methyl-2-propylphenol,89-83-8,319.96,Yaw
Cc1c(O)cccc1C(C)C,2,6.646626407719209,2768.0787,179.814,144.79,256.41,C10H14O,2-methyl-3-isopropylphenol,4371-48-6,319.96,Yaw
Cc1cc(C(C)C)ccc1O,2,6.617246407719209,2756.635,179.934,144.45,256.5,C10H14O,2-methyl-4-isopropylphenol,1740-97-2,281.75,Yaw
Cc1cccc(C(C)C)c1O,"1,2",4.699206407719209,1968.3835,193.375,105.77,254.17,C10H14O,2-methyl-6-isopropylphenol,3228-04-4,258.65,Yaw
Cc1cccc(O)c1C(C)C,"1,2",4.700086407719208,1977.2324,192.68,69.0,256.79,C10H14O,3-methyl-2-isopropylphenol,3228-01-1,319.96,Yaw
Cc1cc(O)ccc1C(C)C,2,4.710856407719208,2010.9223,190.22,114.85,265.79,C10H14O,3-methyl-4-isopropylphenol,3228-02-2,385.15,Yaw
Cc1cc(O)cc(C(C)C)c1,"1,2",4.704506407719209,2023.2486,189.066,118.17,270.4,C10H14O,3-methyl-5-isopropylphenol,3228-03-3,322.15,Yaw
Cc1ccc(O)c(C(C)C)c1,"1,2",4.700086407719208,1977.2324,192.68,107.77,256.79,C10H14O,4-methyl-2-isopropylphenol,4427-56-9,308.15,Yaw
CCc1cccc(O)c1CC,2,4.522046407719209,1936.6101,191.61,110.85,267.19,C10H14O,"2,3-diethylphenol",---,319.96,Yaw
CCc1ccc(O)c(CC)c1,"1,2",4.700086407719208,1977.2324,192.68,107.77,256.79,C10H14O,"2,4-diethylphenol",936-89-0,319.96,Yaw
CCc1ccc(CC)c(O)c1,2,4.344876407719209,1866.7728,193.0,106.85,268.63,C10H14O,"2,5-diethylphenol",876-20-0,319.96,Yaw
CCc1cccc(CC)c1O,"1,2",4.696546407719208,1941.8372,195.46,99.77,246.32,C10H14O,"2,6-diethylphenol",1006-59-3,310.65,Yaw
CCc1ccc(O)cc1CC,2,4.710856407719208,2010.9223,190.22,114.85,265.79,C10H14O,"3,4-diethylphenol",875-85-4,319.96,Yaw
CCc1cc(O)cc(CC)c1,"1,2",4.706806407719209,2048.0275,187.12,123.77,277.73,C10H14O,"3,5-diethylphenol",1197-34-8,349.15,Yaw
CCc1ccc(O)c(C)c1C,2,4.344876407719209,1866.7728,193.0,106.85,268.63,C10H14O,"2,3-dimethyl-4-ethylphenol",---,319.96,Yaw
CCc1cc(C)c(C)c(O)c1,2,4.710856407719208,2010.9223,190.22,114.85,265.79,C10H14O,"2,3-dimethyl-5-ethylphenol",---,319.96,Yaw
CCc1ccc(C)c(C)c1O,2,4.710856407719208,2010.9223,190.22,114.85,265.79,C10H14O,"2,3-dimethyl-6-ethylphenol",---,326.15,Yaw
CCc1c(C)ccc(O)c1C,2,4.912496407719209,2090.1653,188.83,118.85,264.42,C10H14O,"2,4-dimethyl-3-ethylphenol",62126-74-3,343.15,Yaw
CCc1cc(C)cc(C)c1O,"1,2",4.699736407719208,1973.6928,192.958,106.97,255.74,C10H14O,"2,4-dimethyl-6-ethylphenol",2219-79-6,319.96,Yaw
CCc1cc(C)cc(O)c1C,2,4.344876407719209,1866.7728,193.0,106.85,268.63,C10H14O,"2,5-dimethyl-3-ethylphenol",---,319.96,Yaw
CCc1cc(C)c(O)cc1C,2,4.344876407719209,1866.7728,193.0,106.85,268.63,C10H14O,"2,5-dimethyl-4-ethylphenol",32018-76-1,312.15,Yaw
CCc1c(C)ccc(C)c1O,2,4.344876407719209,1866.7728,193.0,106.85,268.63,C10H14O,"2,5-dimethyl-6-ethylphenol",---,319.96,Yaw
CCc1ccc(C)c(O)c1C,2,4.344876407719209,1866.7728,193.0,106.85,268.63,C10H14O,"2,6-dimethyl-3-ethylphenol",---,319.96,Yaw
CCc1cc(C)c(O)c(C)c1,"1,2",4.661316407719209,1965.584,192.68,107.77,258.11,C10H14O,"2,6-dimethyl-4-ethylphenol",10570-69-1,309.15,Yaw
CCc1c(O)ccc(C)c1C,2,4.912496407719209,2090.1653,188.83,118.85,264.42,C10H14O,"3,4-dimethyl-2-ethylphenol",---,319.96,Yaw
CCc1cc(O)cc(C)c1C,"1,2",4.6857964077192085,2020.9276,188.788,118.97,272.11,C10H14O,"3,4-dimethyl-5-ethylphenol",62126-75-4,351.15,Yaw
CCc1cc(C)c(C)cc1O,2,4.912496407719209,2090.1653,188.83,118.85,264.42,C10H14O,"3,4-dimethyl-6-ethylphenol",2219-78-5,324.15,Yaw
CCc1c(C)cc(C)cc1O,2,5.877486407719209,2468.071,183.27,134.85,259.32,C10H14O,"3,5-dimethyl-2-ethylphenol",62126-76-5,353.15,Yaw
CCc1c(C)cc(O)cc1C,"1,2",4.688076407719208,2079.9227,184.062,132.57,290.04,C10H14O,"3,5-dimethyl-4-ethylphenol",62126-77-6,363.65,Yaw
Cc1cc(O)c(C)c(C)c1C,"1,2",4.710636407719209,2090.5073,183.784,133.37,290.3,C10H14O,"2,3,4,5-tetramethylphenol",488-70-0,355.15,Yaw
Cc1cc(C)c(O)c(C)c1C,"1,2",4.707456407719208,2055.1073,186.564,125.37,279.82,C10H14O,"2,3,4,6-tetramethylphenol",3238-38-8,353.15,Yaw
Cc1cc(C)c(C)c(O)c1C,"1,2",4.723916407719209,2053.3473,187.12,117.0,277.13,C10H14O,"2,3,5,6-tetramethylphenol",527-35-5,390.15,Yaw
CCCCc1ccccc1O,"1,2",4.827506407719208,2040.0303,190.734,113.37,259.95,C10H14O,2-butylphenol,3180-09-4,253.15,Yaw
CCCCOc1ccccc1,"1,2",4.394826407719209,1865.2456,214.418,82.8,241.21,C10H14O,butyl phenyl ether,1126-79-0,253.75,Yaw
CC(C)(C)c1ccc(O)c(O)c1,"1,2",4.893576407719209,2263.1783,177.43,156.65,315.36,C10H14O2,p-tert-butylcatechol,98-29-3,330.15,Yaw
CC(C)(C)c1ccc(S)cc1,2,3.873636407719209,1721.5599,189.9,109.27,291.98,C10H14S,4-tert-butylthiophenol,2396-68-1,262.25,Yaw
Cc1cc(C)c(CS)c(C)c1,2,3.853896407719208,1712.787,189.9,108.77,292.19,C10H14S,"2,4,6-trimethylbenzyl mercaptan",21411-42-7,320.15,Yaw
CCN(CC)c1ccccc1,"1,2",4.407526407719208,1819.3875,195.941,93.39,247.11,C10H15N,"N,N-diethylaniline",91-66-7,235.15,Yaw
CCc1cccc(CC)c1N,2,4.265756407719208,1840.0707,190.595,108.77,273.51,C10H15N,"2,6-diethylaniline",579-66-8,276.65,Yaw
CCC(C)c1ccccc1N,2,4.4856264077192085,1926.9951,188.83,113.85,271.67,C10H15N,2-sec-butylaniline,55751-54-7,274.23,Yaw
CC(C)(C)c1ccccc1N,"1,2",4.440046407719208,1887.2983,191.012,107.57,264.96,C10H15N,2-tert-butylaniline,6310-21-0,274.23,Yaw
CCCCc1ccc(N)cc1,2,4.671546407719209,2000.3697,187.44,117.85,270.26,C10H15N,4-butylaniline,104-13-2,274.23,Yaw
CCC(C)c1ccc(N)cc1,"1,2",4.186446407719209,1824.244,189.9,110.77,279.61,C10H15N,4-sec-butylaniline,30273-11-1,274.23,Yaw
CC(C)(C)c1ccc(N)cc1,"1,2",4.830476407719209,2028.3946,189.066,113.17,258.76,C10H15N,4-tert-butylaniline,769-92-6,290.15,Yaw
CCC(C)Nc1ccccc1,2,3.9371064077192086,1709.7942,193.514,100.37,276.72,C10H15N,N-sec-butylaniline,6068-69-5,274.23,Yaw
CC(C)(C)Nc1ccccc1,2,3.658686407719209,1599.0566,196.294,92.37,279.95,C10H15N,N-tert-butylaniline,937-33-7,274.23,Yaw
CCCCNc1ccccc1,"1,2",4.615986407719209,1972.0457,188.371,115.17,268.65,C10H15N,N-butylaniline,1126-78-9,258.75,Yaw
CC(C)Cc1ccc(N)cc1,2,4.316156407719209,1860.0101,190.178,109.97,273.07,C10H15N,4-isobutylaniline,30090-17-6,274.23,Yaw
CC(C)CNc1ccccc1,2,4.151656407719209,1794.8907,191.568,105.97,274.56,C10H15N,N-isobutylaniline,588-47-6,274.23,Yaw
Cc1ccc(NC(C)C)cc1,2,3.794036407719209,1652.9388,194.904,96.37,278.31,C10H15N,4-methyl-N-isopropylaniline,10436-75-6,274.23,Yaw
Cc1ccc(C(C)C)cc1N,2,4.4856264077192085,1926.9951,188.83,113.85,271.67,C10H15N,2-methyl-5-isopropylaniline,2051-53-8,257.15,Yaw
CCCNc1ccc(C)cc1,"1,2",4.323056407719209,1855.6044,190.734,108.37,270.63,C10H15N,4-methyl-N-propylaniline,54837-90-0,274.23,Yaw
Cc1cc(N)c(C)c(C)c1C,2,4.4856264077192085,1926.9951,188.83,113.85,271.67,C10H15N,"2,3,4,5-tetramethylaniline",2217-45-0,342.15,Yaw
Cc1cc(C)c(N)c(C)c1C,2,4.4856264077192085,1926.9951,188.83,113.85,271.67,C10H15N,"2,3,4,6-tetramethylaniline",488-71-1,296.65,Yaw
Cc1cccc(C)c1N(C)C,2,3.651086407719209,1541.9956,201.576,77.17,258.71,C10H15N,"N,N,2,6-tetramethylaniline",769-06-2,237.15,Yaw
Cc1cccc(C(C)C)c1N,2,4.350276407719209,1873.5022,189.9,110.77,272.78,C10H15N,2-isopropyl-6-methylaniline,5266-85-3,269.50571701175517,ML