smiles,code,A [log10(atm)],B [C],C [C],TMIN [C],TMAX [C],FORMULA,NAME,CAS No,mp [K],mp_type
CN=NC(F)(F)F,3,4.995186407719209,1377.0,273.15,-72.89,20.19,C2H3F3N2,"1,1,1-trifluoroazomethane",690-21-1,202.50179964314955,ML
COC(F)(F)F,"1,2",4.908746407719208,1173.9579,262.736,-89.83,-7.96,C2H3F3O,methyl trifluoromethyl ether,421-14-7,124.0,Yaw
OCC(F)(F)F,"1,2",4.783786407719209,1328.0818,203.622,-4.35,92.64,C2H3F3O,"2,2,2-trifluoroethanol",75-89-8,229.65,Yaw
C[Se]C(F)(F)F,3,4.7792864077192085,1448.0,273.15,-64.15,50.19,C2H3F3Se,methyl(trifluoro-methyl) selenide,1544-45-2,169.33700505919413,ML
CC(=O)O[O-].F[S+](F)(F)(F)F,3,5.024586407719209,1895.0,273.15,1.27,128.03,C2H3F5O3S,pentafluorosulfur peroxyacetate,60672-60-8,275.6872073184438,ML
C=CI,"1,2",4.156016407719209,1239.1024,242.097,-36.84,79.33,C2H3I,vinyl iodide,593-66-8,153.31157750340302,ML
CC(=O)I,"1,2",7.315376407719208,3691.9656,396.686,-0.6,129.66,C2H3IO,acetyl iodide,507-02-8,217.684490306379,ML
CC(I)(I)I,2,7.737206407719208,3154.6606,187.065,140.93,272.24,C2H3I3,"1,1,1-triiodoethane",594-21-8,366.15,Yaw
ICC(I)I,2,7.995386407719209,3253.7253,186.289,143.16,275.16,C2H3I3,"1,1,2-triiodoethane",---,346.15,Yaw
CC#N,"1,2",4.663416407719208,1583.4004,257.887,-43.83,272.35,C2H3N,acetonitrile,75-05-8,229.32,Yaw
[C-]#[N+]C,2,3.092756407719208,847.8977,192.506,-45.0,111.21,C2H3N,methyl isocyanide,593-75-9,228.15,Yaw
CSC#N,"1,2",4.374966407719208,1625.7275,238.698,21.18,160.36,C2H3NS,methyl thiocyanate,556-64-9,270.65,Yaw
C=C,"1,2",4.087856407719209,649.8057,262.73,-169.15,9.2,C2H4,ethylene,74-85-1,103.99,Yaw
CC(Cl)Br,"1,2",3.119556407719209,770.19,163.891,-9.86,109.37,C2H4BrCl,1-bromo-1-chloroethane,593-96-4,195.11419357875937,ML
ClCCBr,"1,2",3.699296407719209,1130.0726,198.483,-0.4,134.06,C2H4BrCl,1-bromo-2-chloroethane,107-04-0,256.45,Yaw
FCCBr,"1,2",4.509216407719209,1554.1,273.15,-29.94,96.15,C2H4BrF,1-bromo-2-fluoroethane,762-49-2,184.96517238875325,ML
CC(F)Br,3,4.542206407719209,1565.9,273.15,-29.35,96.06,C2H4BrF,1-bromo-1-fluoroethane,2311-13-9,156.96076953674057,ML
CC(Br)Br,"1,2",4.102496407719209,1329.8026,216.095,6.16,133.72,C2H4Br2,"1,1-dibromoethane",557-91-5,210.15,Yaw
BrCCBr,"1,2",4.361146407719208,1610.3596,238.402,9.79,377.0,C2H4Br2,"1,2-dibromoethane",106-93-4,282.94,Yaw
CC(F)Cl,"1,2",4.3206264077192085,1178.5829,256.631,-66.58,36.58,C2H4ClF,1-chloro-1-fluoroethane,1615-75-4,147.1423500197018,ML
FCCCl,"1,2",3.837806407719208,947.779,193.809,-28.07,74.17,C2H4ClF,1-chloro-2-fluoroethane,762-50-5,197.15,Yaw
[N-]=[N+]=NCCCl,3,4.209016407719209,1806.369,273.15,-0.15,189.08,C2H4ClN3,1-chloro-2-azidoethane,53422-48-3,223.4983825064668,ML
CC(Cl)Cl,"1,2",4.299946407719209,1268.9377,237.755,-32.45,249.85,C2H4Cl2,"1,1-dichloroethane",75-34-3,176.19,Yaw
ClCCCl,"1,2",4.409346407719209,1406.7116,235.48,-35.66,288.45,C2H4Cl2,"1,2-dichloroethane",107-06-2,237.49,Yaw
ClCOCCl,"1,2",4.406436407719209,1449.7134,224.949,5.63,129.24,C2H4Cl2O,bis(chloromethyl) ether,542-88-1,231.65,Yaw
ClCSCCl,3,5.545196407719208,2383.455,273.15,46.85,181.35,C2H4Cl2S,bis(chloromethyl) sulfide,3592-44-7,232.05638926502675,ML
Cl[Si](Cl)(Cl)CC[Si](Cl)(Cl)Cl,3,4.954696407719209,2242.0,251.0,76.99,230.77,C2H4Cl6Si2,"1,2-bis(trichlorosilyl)ethane",2504-64-5,284.267360715941,ML
CC([Si](Cl)(Cl)Cl)[Si](Cl)(Cl)Cl,3,5.228086407719209,2425.0,273.15,54.85,219.03,C2H4Cl6Si2,"1,1,1,3,3,3-hexachloro-2-methyl-1,3-disilapropane",18076-92-1,267.81844194730166,ML
O=[N+]([O-])OCCF,3,5.9492864077192085,2000.0,273.15,-17.73,80.94,C2H4FNO2,2-fluoroethyl nitrate,4528-33-0,183.52490081225653,ML
CC(F)F,"1,2",4.266006407719209,937.8957,244.854,-92.27,113.26,C2H4F2,"1,1-difluoroethane",75-37-6,154.56,Yaw
FCCF,"1,2",4.514876407719209,1124.5264,238.572,-62.75,28.29,C2H4F2,"1,2-difluoroethane",624-72-6,154.56,Yaw
CP([O-])C(F)(F)F,3,4.290956407719209,1174.8,236.91,-46.56,57.53,C2H4F3OP,methyl(trifluoro-methyl)phosphinite,6395-71-7,186.93364531050784,ML
FCCOS(F)(F)(F)(F)F,3,3.7497664077192088,1023.87,183.76,-1.92,113.12,C2H4F6OS,pentafluoro(2-fluoroethoxy)sulfur,900001-59-4,214.82496369964724,ML
CC(I)I,2,2.252576407719209,736.59,103.62,63.01,273.82,C2H4I2,"1,1-diiodoethane",594-02-5,336.16,Yaw
ICCI,"1,2",3.297856407719209,1068.7721,124.031,82.35,232.6,C2H4I2,"1,2-diiodoethane",624-73-7,356.16,Yaw
CC([N+](=O)[O-])[N+](=O)[O-],"1,2",5.054356407719209,1971.4288,204.495,79.77,210.25,C2H4N2O4,"1,1-dinitroethane",600-40-8,312.65,Yaw
O=[N+]([O-])CC[N+](=O)[O-],3,5.673706407719209,2147.4868,204.495,79.77,195.21,C2H4N2O4,"1,2-dinitroethane",7570-26-5,312.65,Yaw
NC(=S)C(N)=S,3,9.832186407719208,5515.0,273.15,197.69,305.48,C2H4N2S2,ethanedithioamide,79-40-3,443.15,Yaw
CC=O,"1,2",4.438576407719209,1176.3175,244.272,-58.13,192.85,C2H4O,acetaldehyde,75-07-0,150.15,Yaw
C1CO1,"1,2",4.313806407719208,1100.6722,243.301,-65.62,196.0,C2H4O,ethylene oxide,75-21-8,160.65,Yaw
C=CO,3,5.965406407719209,1551.2083,249.531,-51.83,24.32,C2H4O,ethenol,557-75-5,217.70398164786488,ML
CC(=O)O,"1,2",4.395126407719209,1327.1634,183.913,16.66,318.8,C2H4O2,acetic acid,64-19-7,289.81,Yaw
COC=O,"1,2",4.172546407719208,1138.3109,236.959,-48.91,214.05,C2H4O2,methyl formate,107-31-3,174.15,Yaw
CC(=O)OO,3,9.141526407719208,3061.7732,258.895,14.4,87.44,C2H4O3,peroxyacetic acid,79-21-0,272.95,Yaw
C1CS1,"1,2",4.230576407719209,1238.6882,237.244,-34.56,77.98,C2H4S,ethylene sulfide,420-12-2,164.15,Yaw
[AsH2]CC(Br)Br,3,5.614766407719209,2608.7,273.15,74.88,217.79,C2H5AsBr2,dibromoethylarsine,683-43-2,242.9492970554082,ML
CC[As](Cl)Cl,3,3.3305764077192084,1035.2,155.45,43.19,186.25,C2H5AsCl2,ethyldichloroarsine,598-14-1,208.25,Yaw
CC[As](F)F,3,4.695416407719208,1563.9941,238.79,-0.96,117.12,C2H5AsF2,ethyldifluoroarsine,430-40-0,234.45,Yaw
CCOB(Cl)Cl,3,3.882186407719209,1101.1,205.75,-14.69,101.72,C2H5BCl2O,dichloroethoxyborane,16339-28-9,197.26982269432958,ML
CCBr,"1,2",4.4335664077192085,1260.4164,245.939,-46.33,230.65,C2H5Br,bromoethane,74-96-4,154.55,Yaw
CC[Hg]Br,3,7.565186407719208,3994.0,273.15,149.67,276.67,C2H5BrHg,bromoethylmercury,107-26-6,434.59396726001904,ML
CCCl,"1,2",4.0659564077192085,1064.709,246.009,-66.97,187.2,C2H5Cl,ethyl chloride,75-00-3,136.75,Yaw
OCCCl,"1,2",5.647606407719209,2283.282,275.442,27.85,151.61,C2H5ClO,2-chloroethanol,107-07-3,205.65,Yaw
COCCl,"1,2",4.473376407719209,1277.4295,229.513,-28.48,81.27,C2H5ClO,chloromethyl methyl ether,107-30-2,169.65,Yaw
CCS(=O)(=O)Cl,3,5.140766407719209,2187.47,250.174,61.36,201.81,C2H5ClO2S,ethanesulfonyl chloride,594-44-5,205.15,Yaw
F[SiH2]CC(Cl)Cl,3,4.800286407719208,1609.5,273.15,-32.25,84.58,C2H5Cl2FSi,dichloroethylfluoro-silane,421-22-7,205.6317650281715,ML
CCP(Cl)Cl,3,3.4599864077192084,1029.0,185.4,7.27,140.34,C2H5Cl2P,dichloroethylphosphine,1498-40-4,215.75940207662143,ML
[SiH3]OCC(Cl)(Cl)Cl,3,4.277726407719209,1427.2045,231.736,0.01,127.16,C2H5Cl3OSi,trichloroethoxysilane,1825-82-7,138.15,Yaw
C[Si](Cl)(Cl)CCl,3,2.8967364077192084,916.8893,195.025,-3.11,158.21,C2H5Cl3Si,dichloro(chloromethyl)methylsilane,1558-33-4,237.12278815433592,ML
CCF,"1,2",4.3305964077192085,953.942,257.429,-103.85,102.15,C2H5F,ethyl fluoride,353-36-6,130.0,Yaw
OCCF,"1,2",6.149496407719209,2315.4694,273.03,15.31,122.88,C2H5FO,2-fluoroethanol,371-62-0,246.75,Yaw
CCOS(=O)(=O)F,3,5.207186407719208,2010.7,273.15,-0.15,136.68,C2H5FO3S,ethyl fluorosulfonate,371-69-7,180.1794084366163,ML
CCN(F)F,3,4.035076407719209,1009.53,233.37,-62.72,36.99,C2H5F2N,"N,N-difluoroethanamine",758-18-9,128.91443326399315,ML
CCO[Si](F)(F)F,3,2.3733864077192086,358.5,158.05,-73.78,14.94,C2H5F3OSi,ethoxytrifluorosilane,460-55-9,151.15,Yaw
CC[Si](F)(F)F,3,4.615876407719209,1165.14,256.82,-77.48,13.21,C2H5F3Si,ethyltrifluorosilane,353-89-9,168.15,Yaw
CCI,"1,2",4.315186407719208,1336.777,237.434,-21.69,95.58,C2H5I,ethyl iodide,75-03-6,162.05,Yaw
C1CN1,"1,2",4.278776407719208,1176.4863,219.609,-28.61,76.83,C2H5N,ethyleneimine,151-56-4,195.2,Yaw
CC(N)=O,"1,2",4.525246407719209,1807.15,178.098,81.0,249.71,C2H5NO,acetamide,60-35-5,354.15,Yaw
CNC=O,"1,2",4.613436407719209,1885.0045,209.081,81.18,228.03,C2H5NO,N-methylformamide,123-39-7,269.35,Yaw
CC[N+](=O)[O-],"1,2",4.627656407719209,1640.8054,240.115,11.99,139.12,C2H5NO2,nitroethane,79-24-3,183.63,Yaw
CCO[N+](=O)[O-],"1,2",4.428706407719209,1413.0669,231.82,-7.86,110.52,C2H5NO3,ethyl nitrate,625-58-1,178.56,Yaw
CC,"1,2",4.071036407719209,698.9298,260.264,-142.83,32.17,C2H6,ethane,74-84-0,90.37,Yaw
C[Al](C)Cl,3,3.952686407719209,1342.7861,213.714,16.47,154.0,C2H6AlCl,dimethylaluminum chloride,1184-58-3,252.15,Yaw
CN(C)B(Cl)Cl,3,4.097736407719209,1392.6,225.33,7.6,141.46,C2H6BCl2N,dichloro(dimethyl-amino)borane,1113-31-1,245.8207123691204,ML
C[Ge](C)(Cl)Cl,3,4.226746407719209,1454.93,221.22,17.0,149.4,C2H6Cl2Ge,dimethylgermanium dichloride,1529-48-2,251.25,Yaw
[SiH3]OCC(Cl)Cl,3,5.019586407719209,1744.5,273.15,-20.34,96.56,C2H6Cl2OSi,dichloroethoxysilane,6485-90-1,223.2268621579566,ML
C[Si](C)(Cl)Cl,"1,2",4.246406407719209,1292.1504,234.923,-24.04,247.2,C2H6Cl2Si,dichlorodimethylsilane,75-78-5,197.05,Yaw
CC[SiH](Cl)Cl,"1,2",4.744116407719209,1664.0,276.0,-24.83,98.51,C2H6Cl2Si,ethyldichlorosilane,1789-58-8,168.39977476993462,ML
C[Si](C)(Cl)[Si](Cl)(Cl)Cl,3,4.264056407719209,1680.79,236.84,26.85,187.28,C2H6Cl4Si2,"1,2,2,2-tetrachloro-1,1-dimethyldisilane",26980-43-8,290.10472122254345,ML
COP(=O)(F)OC,3,5.544286407719209,2319.5,274.15,38.24,168.23,C2H6FO3P,dimethyl fluorophosphate,5954-50-7,244.2008239555411,ML
CN(C)S(F)(F)F,"1,2",5.414826407719209,2115.3,273.15,16.79,140.5,C2H6F3NS,dimethylaminosulfur trifluoride,3880-03-3,273.2,Yaw
C[Hg]C,3,4.033526407719209,1293.4307,227.67,-13.5,118.86,C2H6Hg,dimethyl mercury,593-74-8,230.15,Yaw
CN(C)N=O,"1,2",4.657316407719208,1890.2752,253.022,30.7,180.9,C2H6N2O,N-nitrosodimethylamine,62-75-9,282.9064387898634,ML
CCO,"1,2",5.247936407719209,1660.8713,238.131,-5.15,240.75,C2H6O,ethyl alcohol,64-17-5,159.0,Yaw
COC,"1,2",4.2731864077192085,977.8136,252.976,-94.08,127.23,C2H6O,dimethyl ether,115-10-6,131.65,Yaw
OCCS,"1,2",4.570376407719209,1624.2221,198.33,53.44,183.04,C2H6OS,2-mercaptoethanol,60-24-2,204.58837943773884,ML
OCCO,"1,2",6.815176407719209,3145.8596,264.246,97.51,350.0,C2H6O2,ethylene glycol,107-21-1,260.15,Yaw
CS(C)(=O)=O,"1,2",4.449986407719209,1903.4848,189.9,108.9,269.09,C2H6O2S,dimethyl sulfone,67-71-0,382.05,Yaw
COS(=O)OC,"1,2",3.5254564077192088,1222.932,221.036,5.17,158.44,C2H6O3S,dimethyl sulfite,616-42-2,273.15,Yaw
COS(=O)(=O)OC,"1,2",3.678476407719209,1436.9444,193.786,64.69,231.67,C2H6O4S,dimethyl sulfate,77-78-1,241.15,Yaw
CCS,"1,2",4.240016407719208,1193.8233,245.711,-50.67,226.0,C2H6S,ethyl mercaptan,75-08-1,125.26,Yaw
CSC,"1,2",4.195036407719209,1150.8686,236.491,-47.07,229.89,C2H6S,dimethyl sulfide,75-18-3,174.88,Yaw
SCCS,"1,2",4.253586407719209,1537.726,215.462,35.21,173.58,C2H6S2,"1,2-ethanedithiol",540-63-6,231.95,Yaw
CSSC,"1,2",4.376136407719208,1502.7256,233.641,6.53,341.85,C2H6S2,dimethyl disulfide,624-92-0,188.44,Yaw
C[Se]C,3,4.325306407719209,1315.98,247.251,-35.21,79.76,C2H6Se,dimethyl selenide,593-79-3,185.14,Yaw
C[Te]C,3,4.7094664077192085,1688.82,263.46,-7.2,119.63,C2H6Te,dimethyl telluride,593-80-6,217.26977224094153,ML
COBOC,3,4.033926407719209,1033.6979,230.351,-55.58,46.56,C2H7BO2,dimethoxyborane,4542-61-4,142.55,Yaw
CO[SiH](Cl)OC,3,5.180786407719209,1774.0,273.15,-21.93,90.39,C2H7ClO2Si,chlorodimethoxy-silane,4861-14-7,187.00369368876355,ML
C[SiH](C)Cl,3,4.723796407719209,1458.0,273.15,-52.4,56.51,C2H7ClSi,chlorodimethylsilane,1066-35-9,162.15,Yaw
C[GeH](C)F,3,5.529186407719209,1822.0,273.15,-31.15,75.35,C2H7FGe,fluorodimethyl-germane,34117-35-6,146.8501610216923,ML
CCN,"1,2",3.776836407719209,759.2548,183.179,-48.98,183.0,C2H7N,ethylamine,75-04-7,192.15,Yaw
CNC,"1,2",4.223746407719209,996.0027,227.96,-64.8,164.05,C2H7N,dimethylamine,124-40-3,180.96,Yaw
NCCN,"1,2",4.735736407719209,1593.2458,218.58,11.14,140.69,C2H8N2,ethylenediamine,107-15-3,284.29,Yaw
CN(C)N,"1,2",4.395256407719208,1252.9463,221.118,-21.48,84.91,C2H8N2,"1,1-dimethylhydrazine",57-14-7,215.95,Yaw
CNNC,"1,2",2.709856407719209,629.2035,145.14,-8.9,116.07,C2H8N2,"1,2-dimethylhydrazine",540-73-8,264.25,Yaw
C[SiH2]C,2,4.458596407719209,943.6066,241.12,-92.27,-0.82,C2H8Si,dimethyl silane,1111-74-6,122.93,Yaw
C[SiH2]O[SiH](C)F,3,3.441716407719209,1162.74,274.47,-78.15,95.75,C2H9FOSi2,"1-fluoro-1,3-dimethyldisiloxane",35192-38-2,151.8409397038067,ML
FC(F)(F)[As](C(F)(F)F)C(F)(F)F,3,4.985186407719208,1528.0,273.15,-50.6,53.06,C3AsF9,tris(trifluoromethyl)-arsine,432-02-0,175.03575498556236,ML
[O-][Cl+3]([O-])([O-])OC(F)(F)C(F)(Br)C(F)(F)F,3,5.253826407719208,1991.14,273.15,-0.15,128.87,C3BrClF6O4,"1,1,2,3,3,3-hexafluoro-2-bromopropyl perchlorate",38126-26-0,244.14900292465373,ML
O=C(F)C(F)(Br)C(F)(F)F,3,3.894906407719208,943.97,213.04,-49.6,49.62,C3BrF5O,"2,3,3,3-tetrafluoro-2-bromopropionyl fluoride",6129-62-0,220.04313314552215,ML
FC(F)(F)OC(F)(Br)C(F)(F)Br,3,5.3032864077192094,1806.0,273.15,-21.76,87.89,C3Br2F6O,"(trifluoromethyl)-(1,2,2-trifluoro-1,2-dibromoethyl)ether",2356-57-2,229.5745367041127,ML
O=C(C(F)(F)F)C(F)(F)Cl,"1,2",3.8012664077192087,869.4219,220.719,-67.71,27.67,C3ClF5O,chloropentafluoroacetone,79-53-8,140.15,Yaw
O=C(F)C(F)(Cl)C(F)(F)F,3,4.400186407719208,1248.0,273.15,-78.15,31.3,C3ClF5O,"propanoyl fluoride, 2-chloro-2,3,3,3-tetrafluoro-",28627-00-1,208.8517433877654,ML
O=C(Cl)ON(C(F)(F)F)C(F)(F)F,3,5.815486407719209,1804.5,273.15,-46.15,54.08,C3ClF6NO2,"O-(chloroformyl)-N,N-bis(trifluoromethyl)-hydroxylamine",15496-01-2,240.86164733602527,ML
FC(F)(F)C(F)(F)C(F)(F)Cl,3,4.532216407719209,1156.8487,256.62,-76.23,16.79,C3ClF7,"1-chloro-1,1,2,2,3,3,3-heptafluoropropane",422-86-6,150.05876620127256,ML
FC(F)(F)C(F)(Cl)C(F)(F)F,"1,2",4.5799164077192085,1165.4538,256.62,-76.23,15.95,C3ClF7,"2-chloro-1,1,1,2,3,3,3-heptafluoropropane",76-18-6,174.8885519002487,ML
FN(Cl)C(F)(C(F)(F)F)C(F)(F)F,3,4.827996407719208,1503.0,273.15,-49.12,58.86,C3ClF8N,"N-chloro-N,1,2,2,2-pentafluoro-1-(trifluoromethyl)ethylamine",33757-13-0,165.40261673583774,ML
FC(F)(F)C(F)(F)C(F)(F)S(F)(F)(F)(F)Cl,3,5.049286407719209,1768.0,273.15,-18.03,99.2,C3ClF11S,chlorotetrafluoro-(heptafluoropropyl) sulfur,42769-86-8,194.24624100459917,ML
FC(F)(F)C(F)(Cl)C(F)(F)Cl,"1,2",4.6021564077192085,1298.3996,246.029,-45.75,55.85,C3Cl2F6,"1,2-dichlorohexafluoropropane",661-97-2,148.25,Yaw
FC(F)(Cl)C(F)(F)C(F)(F)Cl,2,4.5623664077192085,1290.4308,246.029,-45.75,56.79,C3Cl2F6,"1,3-dichloro-1,1,2,2,3,3-hexafluoropropane",662-01-1,156.3683484178224,ML
FC(F)(F)C(F)(N(Cl)Cl)C(F)(F)F,3,4.966226407719208,1706.1,273.15,-23.98,92.56,C3Cl2F7N,"N,N-dichloro-1,2,2,2-tetrafluoro-1-(trifluoromethyl)ethylamine",32751-04-5,208.22911320547644,ML
FC(F)(F)C(F)(F)C(Cl)(Cl)Cl,3,4.425766407719209,1368.9204,235.492,-18.43,96.39,C3Cl3F5,"1,1,1-trichloro-2,2,3,3,3-pentafluoropropane",4259-43-2,193.15,Yaw
FC(F)(F)C(Cl)(Cl)C(F)(F)Cl,3,4.309356407719209,1335.3113,236.048,-20.33,97.09,C3Cl3F5,"1,2,2-trichloro-1,1,3,3,3-pentafluoropropane",1599-41-3,270.95,Yaw
FC(F)(Cl)C(F)(Cl)C(F)(F)Cl,"1,2",4.418966407719209,1366.4587,235.576,-18.67,96.32,C3Cl3F5,"1,2,3-trichloro-1,1,2,3,3-pentafluoropropane",76-17-5,201.15,Yaw
FC(F)(Cl)OC(F)(F)C(F)(Cl)Cl,3,3.999046407719209,1174.8,216.24,-16.44,101.44,C3Cl3F5O,"chlorodifluoromethyl 2,2-dichloro-1,1,2-trifluoroethyl ether",37136-24-6,214.3834346968664,ML
FC(F)(Cl)C(F)(F)C(Cl)(Cl)Cl,"1,2",5.0770764077192085,2093.516,298.497,2.39,139.84,C3Cl4F4,"1,1,1,3-tetrachloro-2,2,3,3-tetrafluoropropane",2268-46-4,210.61015754898935,ML
FC(Cl)(Cl)C(F)(F)C(Cl)(Cl)Cl,"1,2",4.422826407719208,1638.6494,214.248,45.7,183.31,C3Cl5F3,"1,1,1,3,3-pentachloro-2,2,3-trifluoropropane",2354-06-5,236.88627229188123,ML
FC(Cl)(Cl)C(F)(F)OC(Cl)(Cl)Cl,3,4.014876407719209,1421.25,203.24,37.83,179.45,C3Cl5F3O,"trichloromethyl 2,2-dichloro-1,1,2-trifluoroethyl ether",428-73-9,263.1303421418736,ML
ClC(Cl)=C(Cl)C(Cl)(Cl)Cl,"1,2",4.370356407719209,1813.7477,205.462,84.68,240.25,C3Cl6,hexachloropropene,1888-71-7,200.25,Yaw
FC(F)(Cl)C(Cl)(Cl)C(Cl)(Cl)Cl,2,4.600226407719209,1841.6775,201.354,82.81,227.02,C3Cl6F2,hexachlorodifluoropropane,661-96-1,324.0,Yaw
FC(Cl)(Cl)C(Cl)(Cl)C(Cl)(Cl)Cl,3,5.006406407719209,2093.7157,190.79,113.21,254.17,C3Cl7F,"1,1,1,2,2,3,3-heptachloro-3-fluoropropane",422-78-6,328.15023306681644,ML
N#CP(C#N)C(F)(F)F,3,4.660366407719208,1490.55,209.42,17.85,132.5,C3F3N2P,dicyano(trifluoro-methyl)phosphine,58310-46-6,293.69513500506923,ML
Fc1nc(F)nc(F)n1,"1,2",4.5578164077192085,1320.9,217.11,-11.96,93.19,C3F3N3,cyanuric fluoride,675-14-9,235.25,Yaw
FC#CC(F)(F)F,3,4.399286407719209,980.0,273.15,-117.1,-34.02,C3F4,tetrafluoropropyne,20174-11-2,152.30281905417326,ML
O=C(F)C(F)=C(F)F,"1,2",4.7973764077192085,1462.0,273.15,-54.23,52.0,C3F4O,trifluoroacryloyl fluoride,667-49-2,163.53732801123004,ML
FC(F)(F)C1=NC1(F)F,3,4.9492864077192085,1254.0,273.15,-89.55,-3.37,C3F5N,"2,2-difluoro-3-(trifluoromethyl)-2h-azirine",3291-42-7,179.5134491166141,ML
FC(F)=C(F)C(F)(F)F,"1,2",3.966036407719209,887.1637,251.69,-99.96,-9.63,C3F6,hexafluoropropylene,116-15-4,116.65,Yaw
O=C(C(F)(F)F)C(F)(F)F,"1,2",4.168736407719209,872.2772,236.513,-92.32,83.99,C3F6O,hexafluoroacetone,684-16-2,151.15,Yaw
FC1(F)OC(F)(F)C1(F)F,"1,2",3.8801164077192087,751.4296,222.661,-92.23,-10.72,C3F6O,perfluorooxetane,425-82-1,187.6746941815267,ML
FC(F)=C(F)OC(F)(F)F,"1,2",4.835276407719209,1195.0385,273.15,-95.21,-9.53,C3F6O,trifluoromethyl trifluorovinyl ether,1187-93-5,156.4384054099459,ML
O=[N+]([O-])C(F)(F)C(F)(F)C(F)(F)F,3,4.984186407719209,1491.0,273.15,-55.96,45.23,C3F7NO2,perfluoro-1-nitropropane,423-33-6,230.80318141699317,ML
O=C(F)ON(C(F)(F)F)C(F)(F)F,3,3.569286407719209,1494.0,273.15,0.97,183.97,C3F7NO2,"O-(fluoroformyl)-N,N-bis(trifluoromethyl)-hydroxylamine",15496-00-1,223.09235362224902,ML
FC(F)(F)C(F)(F)C(F)(F)F,"1,2",4.475816407719209,982.6014,258.535,-103.96,71.87,C3F8,octafluoropropane,76-19-7,124.85,Yaw
O=S(C(F)(F)F)C(F)(F)C(F)(F)F,3,4.7792864077192085,1483.0,273.15,-50.48,58.01,C3F8OS,(trifluoromethyl)-(pentafluoroethyl) sulfoxide,33622-17-2,237.3008244395634,ML
FC(F)(F)SC(F)(F)C(F)(F)F,3,4.399286407719209,1228.0,273.15,-77.61,26.49,C3F8S,(trifluoromethyl)-(pentafluoroethyl) sulfide,33547-10-3,185.95333172198175,ML
FC(F)(F)N(C(F)(F)F)C(F)(F)F,3,4.729286407719209,1250.0,273.15,-84.05,9.13,C3F9N,tris(trifluoromethyl)-amine,432-03-1,173.07070141848,ML
FC(F)(F)ON(C(F)(F)F)C(F)(F)F,3,5.150786407719208,1410.0,273.15,-72.63,17.59,C3F9NO,"1,1,1-trifluoro-N-(trifluoromethoxy)-N-(trifluoromethyl)-methanamine",671-63-6,192.5605291684526,ML
O=[N+]([O-])N(N(C(F)(F)F)C(F)(F)F)C(F)(F)F,3,5.024186407719209,1650.0,273.15,-34.19,76.19,C3F9N3O2,nitro-tris(trifluoro-methyl)hydrazine,10405-31-9,253.10089302496303,ML
FC(F)(F)P(C(F)(F)F)C(F)(F)F,3,4.442186407719209,1289.6,273.15,-69.2,38.26,C3F9P,tris(trifluoromethyl)-phosphine,423-04-1,185.57578367504092,ML
FC(F)(F)OP(=S)(SC(F)(F)F)C(F)(F)F,3,5.522186407719209,1980.0,273.15,-5.69,106.08,C3F9PS2,bis(trifluoromethyl)(trifluoromethyl)phosphonodithioate,36121-49-0,275.23498732889317,ML
O=S(F)(F)(C(F)(F)F)C(F)(F)C(F)(F)F,3,4.952496407719209,1598.81,273.15,-39.18,70.57,C3F10OS,difluorooxo(trifluoromethyl)(pentafluoro-ethyl)sulfur,33564-24-8,224.934317373491,ML
FC(F)(F)C(F)(F)S(F)(F)C(F)(F)F,3,4.809286407719209,1525.0,273.15,-45.2,65.12,C3F10S,difluoro(pentafluoro-ethyl)(trifluoromethyl) sulfur,31222-06-7,161.2122546434331,ML
O=S(=O)(F)OC(C(F)(F)F)(C(F)(F)F)S(F)(F)(F)(F)F,3,5.139286407719208,1942.5,273.15,3.56,128.34,C3F12O3S2,"pentafluoro(2,2,2-trifluoro-1-[(fluorosulfonyl)oxy]-1-(trifluoromethyl)ethyl] sulfur",68010-30-0,274.2028450340286,ML
FC(F)C(F)(F)C(F)(F)Cl,3,3.1033364077192083,860.9772,260.693,-87.95,46.55,C3HClF6,"1-chloro-1,1,2,2,3,3-hexafluoropropane",422-55-9,166.79798647612367,ML
FC(F)(F)C(Cl)C(F)(F)F,"1,2",3.182146407719209,874.5913,260.693,-87.95,42.87,C3HClF6,"2-chloro-1,1,1,3,3,3-hexafluoropropane",431-87-8,191.7191401838824,ML
FC(C(F)(F)F)C(F)(F)Cl,"1,2",3.091316407719209,858.9007,260.693,-87.95,47.13,C3HClF6,"1-chloro-1,1,2,3,3,3-hexafluoropropane",359-58-0,167.64167808333684,ML