smiles,code,A [log10(atm)],B [C],C [C],TMIN [C],TMAX [C],FORMULA,NAME,CAS No,mp [K],mp_type
CCC(O)(CC)C(O)(CC)CC,3,3.954566407719208,1800.1811,192.124,116.37,300.6,C10H22O2,"3,4-diethyl-3,4-hexanediol",6931-71-1,298.65,Yaw
CCCCOCCOCCCC,"1,2",4.945056407719209,2004.4652,199.547,94.11,232.07,C10H22O2,ethylene glycol dibutyl ether,112-48-1,204.05,Yaw
CC(C)COCCOCC(C)C,3,3.0325064077192083,1360.7574,208.443,24.83,289.73,C10H22O2,ethylene glycol diisobutyl ether,54922-86-0,204.05,Yaw
CCCCC(CC)COCCO,3,4.561016407719209,1974.7458,192.68,113.87,270.88,C10H22O2,2-(2-ethylhexyloxy)ethanol,1559-35-9,204.05,Yaw
CCCCCCCCOCCO,3,4.641936407719209,2006.7903,192.036,115.62,270.26,C10H22O2,2-(octyloxy)ethanol,10020-43-6,204.05,Yaw
CCCCCOS(=O)OCCCCC,3,3.266606407719209,1501.5902,186.147,105.57,320.19,C10H22O3S,dipentyl sulfite,2051-05-0,231.52896890120357,ML
CCCCCOS(=O)(=O)OCCCCC,3,3.059286407719209,1559.2636,178.736,136.9,386.57,C10H22O4S,dipentyl sulfate,5867-98-1,286.65,Yaw
COCCOCCOCCOCCOC,"1,2",5.378806407719209,2682.0703,222.836,146.61,305.36,C10H22O5,tetraethylene glycol dimethyl ether,143-24-8,243.45,Yaw
CCCCCCCCCCS,2,4.878546407719209,2073.0723,189.567,117.13,263.32,C10H22S,1-decanethiol,143-10-2,247.56,Yaw
CCCCCCCCC(C)S,2,4.459176407719209,1908.3818,192.597,108.41,266.35,C10H22S,2-decanethiol,13402-60-3,231.15,Yaw
CCCCCCCC(S)CC,2,4.403896407719208,1885.9466,192.875,107.21,266.79,C10H22S,3-decanethiol,---,239.36,Yaw
CCCCCCC(S)CCC,2,4.368966407719209,1872.2015,193.153,106.41,267.08,C10H22S,4-decanethiol,---,239.36,Yaw
CCCCCC(S)CCCC,2,4.3344664077192085,1858.6216,193.431,105.61,267.37,C10H22S,5-decanethiol,---,239.36,Yaw
CCCCCCCC(C)CS,2,4.581566407719208,1955.7928,191.513,111.13,265.39,C10H22S,2-methyl-1-nonanethiol,---,239.36,Yaw
CCCCCCC(C)CCS,2,4.544406407719209,1941.1913,191.791,110.33,265.67,C10H22S,3-methyl-1-nonanethiol,---,239.36,Yaw
CCCCCC(C)CCCS,2,4.507716407719209,1926.7711,192.069,109.53,265.96,C10H22S,4-methyl-1-nonanethiol,---,239.36,Yaw
CCCCC(C)CCCCS,2,4.471486407719208,1912.5288,192.347,108.73,266.24,C10H22S,5-methyl-1-nonanethiol,---,239.36,Yaw
CCCC(C)CCCCCS,2,4.435706407719208,1898.4611,192.625,107.93,266.53,C10H22S,6-methyl-1-nonanethiol,---,239.36,Yaw
CCC(C)CCCCCCS,2,4.400386407719209,1884.5645,192.903,107.13,266.82,C10H22S,7-methyl-1-nonanethiol,---,239.36,Yaw
CC(C)CCCCCCCS,2,4.365496407719209,1870.8361,193.181,106.33,267.11,C10H22S,8-methyl-1-nonanethiol,---,239.36,Yaw
CCCCCCCC(C)(C)S,2,4.331036407719209,1857.2726,193.459,105.53,267.4,C10H22S,2-methyl-2-nonanethiol,---,239.36,Yaw
CCCCCCC(C)C(C)S,2,4.296996407719209,1843.8711,193.737,104.73,267.7,C10H22S,3-methyl-2-nonanethiol,---,239.36,Yaw
CCCCCC(C)CC(C)S,2,4.263376407719209,1830.6285,194.015,103.93,267.99,C10H22S,4-methyl-2-nonanethiol,---,239.36,Yaw
CCCCC(C)CCC(C)S,2,4.230156407719209,1817.5421,194.293,103.13,268.29,C10H22S,5-methyl-2-nonanethiol,---,239.36,Yaw
CCCC(C)CCCC(C)S,2,4.197346407719208,1804.6089,194.571,102.33,268.59,C10H22S,6-methyl-2-nonanethiol,---,239.36,Yaw
CCC(C)CCCCC(C)S,2,4.1649164077192085,1791.8263,194.849,101.53,268.89,C10H22S,7-methyl-2-nonanethiol,---,239.36,Yaw
CC(C)CCCCCC(C)S,2,4.132876407719209,1779.1915,195.127,100.73,269.19,C10H22S,8-methyl-2-nonanethiol,---,239.36,Yaw
CCCCCCCCCSC,2,5.027956407719208,2050.6683,192.483,104.34,241.34,C10H22S,2-thiaundecane,59973-07-8,237.56,Yaw
CCCCCCCCSCC,2,5.198336407719209,2114.8373,191.46,107.28,240.38,C10H22S,3-thiaundecane,3698-94-0,219.32,Yaw
CCCCCCCSCCC,2,5.151126407719209,2097.0635,191.738,106.48,240.64,C10H22S,4-thiaundecane,24768-46-5,219.32,Yaw
CCCCCCSCCCC,2,5.104606407719209,2079.5439,192.016,105.68,240.9,C10H22S,5-thiaundecane,16967-04-7,219.32,Yaw
CCCCCSCCCCC,2,5.058756407719208,2062.2731,192.294,104.88,241.16,C10H22S,6-thiaundecane,872-10-6,221.85,Yaw
CCCCCCCC(C)SC,2,4.607556407719208,1892.0144,195.263,96.34,244.07,C10H22S,3-methyl-2-thiadecane,---,219.32,Yaw
CCCCCCC(C)CSC,2,4.568606407719209,1877.2891,195.541,95.54,244.36,C10H22S,4-methyl-2-thiadecane,---,219.32,Yaw
CCCCCC(C)CCSC,2,4.530166407719209,1862.7545,195.819,94.74,244.64,C10H22S,5-methyl-2-thiadecane,---,219.32,Yaw
CCCCC(C)CCCSC,2,4.492236407719209,1848.407,196.097,93.94,244.92,C10H22S,6-methyl-2-thiadecane,---,219.32,Yaw
CCCC(C)CCCCSC,2,4.454806407719208,1834.2428,196.375,93.14,245.21,C10H22S,7-methyl-2-thiadecane,---,219.32,Yaw
CCCCCCCSC(C)C,2,4.755526407719208,1947.9109,194.24,99.28,243.05,C10H22S,2-methyl-3-thiadecane,---,219.32,Yaw
CCCCCCC(C)SCC,2,4.714576407719209,1932.4493,194.518,98.48,243.33,C10H22S,4-methyl-3-thiadecane,---,219.32,Yaw
CCCCCC(C)CSCC,2,4.674186407719208,1917.1933,194.796,97.68,243.6,C10H22S,5-methyl-3-thiadecane,---,219.32,Yaw
CCCCC(C)CCSCC,2,4.6343464077192085,1902.1386,195.074,96.88,243.88,C10H22S,6-methyl-3-thiadecane,---,219.32,Yaw
CCCC(C)CCCSCC,2,4.595036407719209,1887.2813,195.352,96.08,244.16,C10H22S,7-methyl-3-thiadecane,---,219.32,Yaw
CCC(C)CSCC(C)CC,2,4.384646407719209,1807.6858,196.906,91.61,245.76,C10H22S,bis(2-methylbutyl) sulfide,96034-00-3,219.32,Yaw
CC(C)CCSCCC(C)C,"1,2",4.479936407719209,1845.9685,196.002,94.21,245.73,C10H22S,diisopentyl sulfide,544-02-5,198.55,Yaw
SCCCCCCCCCCS,2,3.874386407719209,1894.4107,173.66,155.5,356.49,C10H22S2,"1,10-decanedithiol",---,278.5624335496254,ML
CC(S)CCCCCCCCS,2,3.848976407719209,1883.0543,173.938,154.7,356.81,C10H22S2,"1,9-decanedithiol",---,274.76060323830455,ML
CCC(S)CCCCCCCS,2,3.823816407719209,1871.8072,174.216,153.9,357.13,C10H22S2,"1,8-decanedithiol",---,271.64500905157774,ML
CCCC(S)CCCCCCS,2,3.7988964077192087,1860.6676,174.494,153.1,357.45,C10H22S2,"1,7-decanedithiol",---,269.0821540476946,ML
CCCCC(S)CCCCCS,2,3.7742364077192088,1849.634,174.772,152.3,357.77,C10H22S2,"1,6-decanedithiol",---,270.05711279746265,ML
CCCCCC(S)CCCCS,2,3.749806407719209,1838.7049,175.05,151.5,358.1,C10H22S2,"1,5-decanedithiol",---,269.5402282009785,ML
CCCCCCC(S)CCCS,2,3.725616407719208,1827.8787,175.328,150.7,358.42,C10H22S2,"1,4-decanedithiol",---,271.51977986778024,ML
CCCCCCCC(S)CCS,2,3.701656407719209,1817.154,175.606,149.9,358.75,C10H22S2,"1,3-decanedithiol",---,275.48889964747696,ML
CCCCCCCCC(S)CS,2,3.677926407719209,1806.5292,175.884,149.1,359.08,C10H22S2,"1,2-decanedithiol",---,214.16,Yaw
CCCCCCCCCSSC,2,4.648916407719208,2072.3489,180.473,136.9,296.16,C10H22S2,"2,3-dithiadodecane",---,214.16,Yaw
CCCCCCCCSSCC,2,4.576596407719209,2042.6544,181.029,135.3,296.72,C10H22S2,"3,4-dithiadodecane",---,214.16,Yaw
CCCCCCCSSCCC,2,4.506026407719209,2013.6652,181.585,133.7,297.29,C10H22S2,"4,5-dithiadodecane",---,214.16,Yaw
CCCCCCSSCCCC,2,4.437166407719209,1985.3562,182.141,132.1,297.86,C10H22S2,"5,6-dithiadodecane",---,214.16,Yaw
CCCCCSSCCCCC,2,4.440266407719209,1989.2144,182.697,132.0,297.88,C10H22S2,"6,7-dithiadodecane",112-51-6,214.16,Yaw
CCCCCCCCSCSC,2,5.039356407719208,2232.3882,177.693,144.9,293.44,C10H22S2,"2,4-dithiadodecane",---,214.16,Yaw
CCCCCCCSCSCC,2,4.957176407719208,2198.737,178.249,143.3,293.97,C10H22S2,"3,5-dithiadodecane",---,214.16,Yaw
CCCCCCSCSCCC,2,4.877116407719209,2165.9394,178.805,141.7,294.51,C10H22S2,"4,6-dithiadodecane",---,214.16,Yaw
CCCCCSCSCCCC,2,4.799106407719209,2133.9627,179.361,140.1,295.06,C10H22S2,"5,7-dithiadodecane",---,214.16,Yaw
CC(C)CCSSCCC(C)C,"1,2",4.372106407719208,1912.5688,187.398,118.47,282.4,C10H22S2,diisopentyl disulfide,2051-04-9,214.16,Yaw
CCCCCCCCCCN,"1,2",4.956646407719209,2041.2241,194.765,103.77,243.68,C10H23N,decylamine,2016-57-1,288.85,Yaw
CCCCCCCCCNC,2,5.028076407719209,2013.8618,198.518,92.97,227.51,C10H23N,methylnonylamine,39093-27-1,234.65,Yaw
CCCCCCCCNCC,2,4.806726407719209,1931.8838,199.908,88.97,228.86,C10H23N,ethyloctylamine,4088-36-2,234.65,Yaw
CCCCCNCCCCC,"1,2",4.826286407719208,1941.0353,199.63,89.77,229.3,C10H23N,dipentylamine,2050-92-2,240.15,Yaw
CC(C)CCNCCC(C)C,"1,2",4.802146407719208,1881.7244,203.8,77.77,214.26,C10H23N,diisopentylamine,544-00-3,229.15,Yaw
CCCCCCCNCCC,2,4.722506407719209,1900.6611,200.464,87.37,229.41,C10H23N,propylheptylamine,---,277.15,Yaw
CCCCCCNCCCC,2,4.6812664077192085,1885.3673,200.742,86.57,229.68,C10H23N,butylhexylamine,---,277.15,Yaw
CCCCCCCCN(C)C,"1,2",4.635506407719209,1845.0058,202.966,80.17,222.69,C10H23N,dimethyloctylamine,7378-99-6,198.15,Yaw
CCCCCCN(CC)CC,"1,2",4.780546407719209,1844.3467,206.302,70.57,205.43,C10H23N,diethylhexylamine,44979-90-0,198.15,Yaw
CC(C)CN(C(C)C)C(C)C,2,4.385016407719209,1711.4494,208.29,64.85,210.77,C10H23N,"N,N-diisopropylisobutylamine",44976-81-0,198.15,Yaw
CC(C)CN(CCO)CC(C)C,3,2.7704164077192086,1386.7283,196.572,54.09,365.0,C10H23NO,"N,N-diisobutylethanolamine",4535-66-4,259.68145443938334,ML
CCCCN(CCO)CCCC,3,2.7704164077192086,1386.7283,196.572,101.57,365.0,C10H23NO,2-dibutylaminoethanol,102-81-8,246.46873050515055,ML
CCOP(=O)(OCC)SCCN(CC)CC,3,12.87981640771921,4934.9,273.15,61.18,119.17,C10H24NO3PS,amitron,78-53-5,298.15,Yaw
C[Si](C)(C)O[Si](C)(C)O[Si](C)(C)O[Si](C)(C)C,3,4.626396407719208,2005.4566,239.121,69.07,224.53,C10H30O3Si4,decamethyltetrasiloxane,141-62-8,205.2,Yaw
C[Si]1(C)O[Si](C)(C)O[Si](C)(C)O[Si](C)(C)O[Si](C)(C)O1,3,4.093666407719208,1584.3566,176.126,89.06,241.62,C10H30O5Si5,decamethylcyclopentasiloxane,541-02-6,226.0,Yaw
FC(F)(F)OC(F)(F)C(F)(F)C(F)(F)C(F)(F)C(F)(F)C(F)(F)C(F)(F)C(F)(F)C(F)(F)OC(F)(F)F,3,5.164186407719209,2246.0,273.15,19.85,188.69,C11F24O2,"octadecafluoro-1,9-bis(trifluoromethoxy)-nonane",900002-05-3,276.1185861870029,ML
ClCc1cccc2ccccc12,"1,2",4.163716407719209,1942.6958,175.027,146.37,327.91,C11H9Cl,1-(chloromethyl)naphthalene,86-52-2,305.15,Yaw
Cc1ccc2ccccc2c1Cl,2,4.180426407719208,1949.2796,175.027,146.57,327.44,C11H9Cl,1-chloro-2-methylnaphthalene,5859-45-0,313.4,Yaw
ClCc1ccc2ccccc2c1,2,4.180426407719208,1949.2796,175.027,146.57,327.44,C11H9Cl,2-(chloromethyl)naphthalene,2506-41-4,321.65,Yaw
Cc1cccc2ccccc12,"1,2",4.480546407719209,2057.4938,217.356,106.08,274.92,C11H10,1-methylnaphthalene,90-12-0,242.67,Yaw
Cc1ccc2ccccc2c1,"1,2",4.164626407719209,1808.2761,193.348,105.77,274.68,C11H10,2-methylnaphthalene,91-57-6,307.73,Yaw
CCc1cnc2ccccc2c1,2,4.057296407719209,1821.7306,182.116,124.67,302.87,C11H11N,3-ethylquinoline,1873-54-7,324.68,Yaw
CCc1ccc2ncccc2c1,2,3.985556407719209,1793.0077,182.992,122.65,303.64,C11H11N,6-ethylquinoline,19655-60-8,324.68,Yaw
CCc1cccc2cccnc12,2,3.7758564077192087,1705.8614,184.896,116.67,306.02,C11H11N,8-ethylquinoline,19655-56-2,324.68,Yaw
Cc1cc2ccccc2nc1C,2,3.9695964077192087,1785.6634,182.95,122.27,303.8,C11H11N,"2,3-dimethylquinoline",1721-89-7,343.15,Yaw
Cc1cc(C)c2ccccc2n1,"1,2",4.147386407719209,1853.1775,181.78,125.64,300.02,C11H11N,"2,4-dimethylquinoline",1198-37-4,288.0,Yaw
Cc1ccc2nc(C)ccc2c1,"1,2",4.049316407719209,1817.4569,182.28,124.2,302.6,C11H11N,"2,6-dimethylquinoline",877-43-0,332.0,Yaw
Cc1ccc2ccc(C)nc2c1,"1,2",4.079496407719208,1823.8741,182.533,123.47,300.17,C11H11N,"2,7-dimethylquinoline",93-37-8,334.15,Yaw
Cc1ccc2cccc(C)c2n1,"1,2",4.0976764077192085,1784.1855,186.564,111.87,283.37,C11H11N,"2,8-dimethylquinoline",1463-17-8,334.15,Yaw
Cc1cnc2ccccc2c1C,2,4.922086407719209,2175.815,175.166,144.67,295.68,C11H11N,"3,4-dimethylquinoline",2436-92-2,346.0,Yaw
Cc1ccc2ncc(C)cc2c1,2,4.178936407719209,1871.7024,181.004,127.87,301.65,C11H11N,"3,6-dimethylquinoline",20668-26-2,330.15,Yaw
Cc1cnc2cc(C)ccc2c1,2,4.210236407719209,1884.5471,180.726,128.67,301.35,C11H11N,"3,7-dimethylquinoline",20668-28-4,352.15,Yaw
Cc1cnc2c(C)cccc2c1,2,3.9127264077192088,1762.2577,183.506,120.67,304.42,C11H11N,"3,8-dimethylquinoline",20668-29-5,324.68,Yaw
Cc1cccc2nccc(C)c12,2,4.044026407719208,1817.0654,182.436,124.25,303.02,C11H11N,"4,5-dimethylquinoline",59129-74-7,351.15,Yaw
Cc1ccc2nccc(C)c2c1,"1,2",4.045656407719209,1836.7223,180.448,129.47,310.05,C11H11N,"4,6-dimethylquinoline",826-77-7,295.15,Yaw
Cc1ccnc2c(C)cccc12,2,4.291656407719208,1918.7868,180.212,130.65,300.61,C11H11N,"4,8-dimethylquinoline",13362-80-6,330.15,Yaw
Cc1ccc2ncccc2c1C,2,4.291656407719208,1918.7868,180.212,130.65,300.61,C11H11N,"5,6-dimethylquinoline",20668-30-8,323.15,Yaw
Cc1cc(C)c2cccnc2c1,"1,2",4.096246407719208,1858.6405,179.892,131.07,309.84,C11H11N,"5,7-dimethylquinoline",20150-89-4,295.15,Yaw
Cc1cc2cccnc2cc1C,2,4.324256407719209,1932.1598,179.934,131.45,300.32,C11H11N,"6,7-dimethylquinoline",20668-33-1,331.15,Yaw
Cc1ccc2c(C)cccc2n1,2,4.0130764077192085,1803.5504,182.533,123.47,303.33,C11H11N,"2,5-dimethylquinoline",26190-82-9,334.15,Yaw
Cc1ccc(C)c2ncccc12,2,4.057296407719209,1821.7306,182.116,124.67,302.87,C11H11N,"5,8-dimethylquinoline",2623-50-9,275.45,Yaw
Cc1cc(C)c2ncccc2c1,"1,2",4.084176407719209,1837.7601,181.421,126.67,304.35,C11H11N,"6,8-dimethylquinoline",2436-93-3,324.68,Yaw
CCc1ccc2ccccc2n1,"1,2",4.056536407719209,1757.9619,187.815,108.27,280.29,C11H11N,2-ethylquinoline,1613-34-9,324.68,Yaw
CC(C)OC(=O)COc1ccc(Cl)cc1Cl,3,2.6999364077192087,1306.7398,112.81,172.46,431.91,C11H12Cl2O3,"isopropyl (2,4-dichlorophenoxy)acetate",94-11-1,278.15,Yaw
CCCOC(=O)COc1ccc(Cl)cc1Cl,3,2.569156407719209,1154.5749,78.22,170.85,430.82,C11H12Cl2O3,"propyl 2,4-dichloro-phenoxyacetate",1928-61-6,306.42002900129324,ML
O=C(COc1ccc(Cl)cc1Cl)OCCCO,3,5.7238264077192085,3796.8507,273.15,189.85,427.01,C11H12Cl2O4,"3-hydroxypropyl 2,4-dichlorophenoxy-acetate",28191-20-0,327.8213255428338,ML
CCCOC(=O)COc1cc(Cl)c(Cl)cc1Cl,3,3.526996407719208,1516.16,85.45,170.85,384.54,C11H11Cl3O3,"propyl 2,4,5-trichloro-phenoxyacetate",1928-40-1,329.1070649170625,ML
CCOC(=O)C=Cc1ccccc1,"1,2",5.394986407719209,2903.04,266.6,132.4,303.3,C11H12O2,ethyl trans-cinnamate,4192-77-2,283.15,Yaw
C=CCc1cc(OC)c2c(c1)OCO2,"1,2",5.665056407719209,3061.3266,263.888,141.81,306.83,C11H12O3,myristicin,607-91-0,306.8475781697893,ML
Cc1c(Cl)cc(C(C)(C)C)c(Cl)c1Cl,3,4.289606407719209,2055.903,182.605,134.85,332.84,C11H13Cl3,"4-tert-butyl-2,3,6-trichlorotoluene",61468-36-8,341.8754559170564,ML
CCc1c(C)[nH]c2ccccc12,2,4.031876407719208,1933.7947,174.888,152.17,343.44,C11H13N,3-ethyl-2-methyl-1H-indole,35246-18-5,317.65,Yaw
Cc1c(C)n(C)c2ccccc12,2,3.794876407719209,1829.6163,177.39,144.97,346.28,C11H13N,"1,2,3-trimethyl-1H-indole",1971-46-6,291.15,Yaw
Cc1ccc2[nH]c(C)c(C)c2c1,2,4.173476407719209,1995.906,173.498,121.5,341.91,C11H13N,"2,3,5-trimethyl-1H-indole",21296-92-4,394.65,Yaw
CCCCc1ccc(C#N)cc1,2,3.8347464077192086,1757.5927,183.595,123.92,313.78,C11H13N,4-butylbenzonitrile,20651-73-4,307.3685232256833,ML
CC(C)(C)c1ccc(C#N)cc1,2,3.763766407719209,1727.8648,184.34,121.77,314.65,C11H13N,4-tert-butylbenzonitrile,4210-32-6,340.66933355303973,ML
CCCCc1ccc(N=C=O)cc1,3,4.331796407719208,1877.6877,186.935,115.3,278.9,C11H13NO,4-butylphenyl isocyanate,69342-47-8,291.0686469895757,ML
CCc1cccc(CC)c1N=C=O,3,4.331796407719208,1877.6877,186.935,115.3,278.9,C11H13NO,"2,6-diethylphenyl isocyanate",20458-99-5,285.5900810587266,ML
CC1CCCc2ccccc21,"1,2",4.197376407719209,1752.6067,197.088,91.26,252.72,C11H14,"1-methyl-[1,2,3,4-tetrahydronaphthalene]",1559-81-5,237.82,Yaw
CC1CCc2ccccc2C1,2,4.010906407719209,1696.9043,197.2,90.81,260.2,C11H14,"2-methyl-[1,2,3,4-tetrahydronaphthalene]",3877-19-8,230.15,Yaw
Cc1cccc2c1CCCC2,"1,2",4.402686407719209,1862.4315,188.971,107.43,265.1,C11H14,"1,2,3,4-tetrahydro-5-methylnaphthalene",2809-64-5,250.15,Yaw
Cc1ccc2c(c1)CCCC2,2,4.1880464077192086,1598.4666,155.801,107.59,255.43,C11H14,"1,2,3,4-tetrahydro-6-methylnaphthalene",1680-51-9,233.15,Yaw
CC1Cc2ccccc2C1C,3,3.5268264077192084,1497.735,198.796,78.17,265.5,C11H14,"2,3-dihydro-1,2-dimethyl-1H-indene",17057-82-8,271.65,Yaw
Cc1ccc(C)c2c1CCC2,3,4.344506407719209,1888.9007,208.907,94.52,258.24,C11H14,"2,3-dihydro-4,7-dimethyl-1H-indene",6682-71-9,272.63,Yaw
Cc1cc2c(cc1C)CCC2,3,3.6435164077192086,1542.808,197.567,81.71,264.01,C11H14,"2,3-dihydro-5,6-dimethyl-1H-indene",1075-22-5,271.65,Yaw
CCC1CCc2ccccc21,3,3.6865164077192087,1559.3994,197.128,82.97,263.48,C11H14,"1-ethyl-2,3-dihydro-1H-indene",4830-99-3,271.65,Yaw
CC1(C)CCc2ccccc21,3,3.645066407719209,1453.0766,197.769,65.19,236.76,C11H14,"1,1-dimethylindane",4912-92-9,227.35,Yaw
C=CC(CC)c1ccccc1,2,3.946266407719208,1593.1091,202.827,70.57,234.21,C11H14,(1-ethylallyl)benzene,19947-22-9,236.15,Yaw
CC=C(CC)c1ccccc1,"1,2",4.523056407719209,1769.1874,201.298,74.97,217.74,C11H14,(1-ethyl-1-propenyl)benzene,4701-36-4,236.15,Yaw
C=Cc1ccc(C(C)C)cc1,2,4.003026407719209,1642.0293,199.325,79.75,244.23,C11H14,4-isopropylstyrene,2055-40-5,228.45,Yaw
CCC=C(C)c1ccccc1,2,4.302766407719209,1724.4654,199.908,78.97,231.02,C11H14,(1-methyl-1-butenyl)benzene,53172-84-2,236.15,Yaw
CCCC=Cc1ccccc1,"1,2",6.279046407719209,2339.5008,195.738,90.97,195.61,C11H14,1-pentenylbenzene,826-18-6,236.15,Yaw
C=Cc1c(C)cc(C)cc1C,"1,2",4.268886407719209,1737.488,197.962,84.57,239.93,C11H14,"2-vinyl-1,3,5-trimethylbenzene",769-25-5,236.15,Yaw
Cc1cc(C)c2c(c1)CCC2,3,3.846136407719209,1643.177,201.355,85.56,262.15,C11H14,"2,3-dihydro-4,6-dimethyl-1H-indene",1685-82-1,271.65,Yaw
C=Cc1cc(C)c(C)cc1C,3,4.635476407719208,1742.4195,175.015,78.85,226.98,C11H14,"2,4,5-trimethylstyrene",3937-24-4,254.002656155895,ML
Cc1cc(C)c(CCl)c(C)c1CCl,2,4.291456407719209,1996.0493,173.54,149.85,326.67,C11H14Cl2,"2,4-bis(chloromethyl)-1,3,5-trimethylbenzene",1585-17-7,378.65,Yaw
Cc1cc(Cl)c(C(C)(C)C)cc1Cl,2,3.6437264077192086,1809.189,204.939,121.85,336.3,C11H14Cl2,"4-tert-butyl-2,5-dichlorotoluene",61468-35-7,319.1269318738417,ML
CCCCOC(=O)c1ccccc1,"1,2",4.715106407719208,2225.3203,221.955,115.42,282.19,C11H14O2,butyl benzoate,136-60-7,251.65,Yaw
CCCCc1ccc(C(=O)O)cc1,2,3.658656407719208,1789.426,184.382,138.65,348.56,C11H14O2,4-butylbenzoic acid,20651-71-2,374.65,Yaw
CC(C)(C)c1cccc(C(=O)O)c1,2,3.658656407719208,1789.426,184.382,138.65,348.56,C11H14O2,3-tert-butylbenzoic acid,7498-54-6,386.67,Yaw
CC(C)(C)c1ccc(CBr)cc1,"1,2",3.0664764077192084,1503.9172,184.938,119.05,358.89,C11H15Br,4-tert-butylbenzyl bromide,18880-00-7,283.15,Yaw
CC(C)(C)c1ccc(CCl)cc1,"1,2",3.2039564077192084,1473.8217,193.0,96.85,314.7,C11H15Cl,4-tert-butylbenzyl chloride,19692-45-6,299.60420585298135,ML
Cc1ccc(C(C)(C)C)cc1Cl,3,4.4023864077192085,1917.6,205.4,98.85,262.15,C11H15Cl,"2-chloro-4-(1,1-dimethylethyl)-1-methylbenzene",42597-10-4,285.59325193364765,ML
CCCCCc1ccccc1,"1,2",4.455936407719209,1937.7489,229.409,76.39,236.97,C11H16,pentylbenzene,538-68-1,198.15,Yaw
CCCC(C)c1ccccc1,"1,2",4.205836407719208,1652.4758,202.9,68.59,220.29,C11H16,2-phenylpentane,2719-52-0,228.43,Yaw
CCC(CC)c1ccccc1,"1,2",4.205566407719209,1655.7758,202.71,69.34,221.35,C11H16,3-phenylpentane,1196-58-3,228.43,Yaw
CCC(C)Cc1ccccc1,"1,2",4.203966407719209,1675.5764,201.57,73.8,227.74,C11H16,1-phenyl-2-methylbutane,3968-85-2,228.43,Yaw
CC(C)CCc1ccccc1,"1,2",4.203466407719208,1681.8467,201.209,75.22,229.76,C11H16,1-phenyl-3-methylbutane,2049-94-7,228.43,Yaw
CCC(C)(C)c1ccccc1,"1,2",4.088976407719208,1614.4422,202.448,67.99,223.76,C11H16,2-phenyl-2-methylbutane,2049-95-8,228.43,Yaw
CC(C)C(C)c1ccccc1,"1,2",4.150766407719209,1624.1144,203.28,65.99,218.6,C11H16,2-phenyl-3-methylbutane,4481-30-5,228.43,Yaw
CC(C)(C)Cc1ccccc1,"1,2",4.090636407719209,1593.9594,203.66,63.27,216.95,C11H16,"1-phenyl-2,2-dimethylpropane",1007-26-7,228.43,Yaw
CCCCc1ccccc1C,"1,2",4.2489764077192085,1731.375,199.48,82.97,239.07,C11H16,1-methyl-2-butylbenzene,1595-11-5,228.43,Yaw
CCCCc1cccc(C)c1,"1,2",4.249756407719208,1721.3642,200.05,80.73,235.88,C11H16,1-methyl-3-butylbenzene,1595-04-6,228.43,Yaw
CCCCc1ccc(C)cc1,"1,2",4.249236407719208,1728.0381,199.67,82.23,238.01,C11H16,1-methyl-4-butylbenzene,1595-05-7,188.15,Yaw
CCC(C)c1ccccc1C,"1,2",4.196176407719209,1669.0729,201.76,72.89,226.74,C11H16,1-methyl-2-sec-butylbenzene,1595-06-8,228.43,Yaw
CCC(C)c1cccc(C)c1,"1,2",4.196706407719208,1662.4856,202.14,71.41,224.61,C11H16,1-methyl-3-sec-butylbenzene,1772-10-7,228.43,Yaw
CCC(C)c1ccc(C)cc1,"1,2",4.195916407719209,1672.3666,201.57,73.64,227.8,C11H16,1-methyl-4-sec-butylbenzene,1595-16-0,228.43,Yaw
Cc1ccccc1CC(C)C,"1,2",4.196176407719209,1669.0729,201.76,72.89,226.74,C11H16,1-methyl-2-isobutylbenzene,36301-29-8,199.85,Yaw
Cc1cccc(CC(C)C)c1,"1,2",4.196706407719208,1662.4856,202.14,71.41,224.61,C11H16,1-methyl-3-isobutylbenzene,5160-99-6,228.43,Yaw