smiles,code,A [log10(atm)],B [C],C [C],TMIN [C],TMAX [C],FORMULA,NAME,CAS No,mp [K],mp_type
CCCCC(C)C=CCCO,2,4.0591064077192085,1786.6751,194.629,106.16,280.79,C10H20O,5-methyl-3-nonen-1-ol,---,269.1,Yaw
CCCC(C)CC=CCCO,2,4.0591064077192085,1786.6751,194.629,106.16,280.79,C10H20O,6-methyl-3-nonen-1-ol,---,269.1,Yaw
CCC(C)CCC=CCCO,2,4.0591064077192085,1786.6751,194.629,106.16,280.79,C10H20O,7-methyl-3-nonen-1-ol,---,269.1,Yaw
CC(C)CCCC=CCCO,2,4.0591064077192085,1786.6751,194.629,106.16,280.79,C10H20O,8-methyl-3-nonen-1-ol,---,269.1,Yaw
CCCCC=CCCC(C)O,2,4.0591064077192085,1786.6751,194.629,106.16,280.79,C10H20O,1-methyl-4-nonen-1-ol,---,269.1,Yaw
CCCCC=CCC(C)CO,2,4.0591064077192085,1786.6751,194.629,106.16,280.79,C10H20O,2-methyl-4-nonen-1-ol,---,269.1,Yaw
CCCCC=CC(C)CCO,2,4.0591064077192085,1786.6751,194.629,106.16,280.79,C10H20O,3-methyl-4-nonen-1-ol,---,269.1,Yaw
CCCCC=C(C)CCCO,2,4.0591064077192085,1786.6751,194.629,106.16,280.79,C10H20O,4-methyl-4-nonen-1-ol,---,269.1,Yaw
CCCCC(C)=CCCCO,2,4.0591064077192085,1786.6751,194.629,106.16,280.79,C10H20O,5-methyl-4-nonen-1-ol,---,269.1,Yaw
CCCC(C)C=CCCCO,2,4.0591064077192085,1786.6751,194.629,106.16,280.79,C10H20O,6-methyl-4-nonen-1-ol,---,269.1,Yaw
CCC(C)CC=CCCCO,2,4.0591064077192085,1786.6751,194.629,106.16,280.79,C10H20O,7-methyl-4-nonen-1-ol,---,269.1,Yaw
CC(C)CCC=CCCCO,2,4.0591064077192085,1786.6751,194.629,106.16,280.79,C10H20O,8-methyl-4-nonen-1-ol,---,269.1,Yaw
CCCC=CCCCC(C)O,2,4.0591064077192085,1786.6751,194.629,106.16,280.79,C10H20O,1-methyl-5-nonen-1-ol,---,269.1,Yaw
CCCC=CCCC(C)CO,2,4.0591064077192085,1786.6751,194.629,106.16,280.79,C10H20O,2-methyl-5-nonen-1-ol,---,269.1,Yaw
CCCC=CCC(C)CCO,2,4.0591064077192085,1786.6751,194.629,106.16,280.79,C10H20O,3-methyl-5-nonen-1-ol,---,269.1,Yaw
CCCC=CC(C)CCCO,2,4.0591064077192085,1786.6751,194.629,106.16,280.79,C10H20O,4-methyl-5-nonen-1-ol,---,269.1,Yaw
CCCC=C(C)CCCCO,2,4.0591064077192085,1786.6751,194.629,106.16,280.79,C10H20O,5-methyl-5-nonen-1-ol,---,269.1,Yaw
CCCC(C)=CCCCCO,2,4.0591064077192085,1786.6751,194.629,106.16,280.79,C10H20O,6-methyl-5-nonen-1-ol,---,269.1,Yaw
CCC(C)C=CCCCCO,2,4.0591064077192085,1786.6751,194.629,106.16,280.79,C10H20O,7-methyl-5-nonen-1-ol,---,269.1,Yaw
CC(C)CC=CCCCCO,2,4.0591064077192085,1786.6751,194.629,106.16,280.79,C10H20O,8-methyl-5-nonen-1-ol,---,269.1,Yaw
CCC=CCCCCC(C)O,2,4.0591064077192085,1786.6751,194.629,106.16,280.79,C10H20O,1-methyl-6-nonen-1-ol,---,269.1,Yaw
CCC=CCCCC(C)CO,2,4.0591064077192085,1786.6751,194.629,106.16,280.79,C10H20O,2-methyl-6-nonen-1-ol,---,269.1,Yaw
CCC=CCCC(C)CCO,2,4.0591064077192085,1786.6751,194.629,106.16,280.79,C10H20O,3-methyl-6-nonen-1-ol,---,269.1,Yaw
CCC=CCC(C)CCCO,2,4.0591064077192085,1786.6751,194.629,106.16,280.79,C10H20O,4-methyl-6-nonen-1-ol,---,269.1,Yaw
CCC=CC(C)CCCCO,2,4.0591064077192085,1786.6751,194.629,106.16,280.79,C10H20O,5-methyl-6-nonen-1-ol,---,269.1,Yaw
CCC=C(C)CCCCCO,2,4.0591064077192085,1786.6751,194.629,106.16,280.79,C10H20O,6-methyl-6-nonen-1-ol,---,269.1,Yaw
CCC(C)=CCCCCCO,2,4.0591064077192085,1786.6751,194.629,106.16,280.79,C10H20O,7-methyl-6-nonen-1-ol,---,269.1,Yaw
CC(C)C=CCCCCCO,2,4.0591064077192085,1786.6751,194.629,106.16,280.79,C10H20O,8-methyl-6-nonen-1-ol,---,269.1,Yaw
CC=CCCCCCC(C)O,2,4.0591064077192085,1786.6751,194.629,106.16,280.79,C10H20O,1-methyl-7-nonen-1-ol,---,269.1,Yaw
CC=CCCCCC(C)CO,2,4.0591064077192085,1786.6751,194.629,106.16,280.79,C10H20O,2-methyl-7-nonen-1-ol,---,269.1,Yaw
CC=CCCCC(C)CCO,2,4.0591064077192085,1786.6751,194.629,106.16,280.79,C10H20O,3-methyl-7-nonen-1-ol,---,269.1,Yaw
CC=CCCC(C)CCCO,2,4.0591064077192085,1786.6751,194.629,106.16,280.79,C10H20O,4-methyl-7-nonen-1-ol,---,269.1,Yaw
CC=CCC(C)CCCCO,2,4.0591064077192085,1786.6751,194.629,106.16,280.79,C10H20O,5-methyl-7-nonen-1-ol,---,269.1,Yaw
CC=CC(C)CCCCCO,2,4.0591064077192085,1786.6751,194.629,106.16,280.79,C10H20O,6-methyl-7-nonen-1-ol,---,269.1,Yaw
CC=C(C)CCCCCCO,2,4.0591064077192085,1786.6751,194.629,106.16,280.79,C10H20O,7-methyl-7-nonen-1-ol,---,269.1,Yaw
CC(C)=CCCCCCCO,2,4.0591064077192085,1786.6751,194.629,106.16,280.79,C10H20O,8-methyl-7-nonen-1-ol,---,269.1,Yaw
C=CCCCCCCC(C)O,2,4.0591064077192085,1786.6751,194.629,106.16,280.79,C10H20O,1-methyl-8-nonen-1-ol,---,269.1,Yaw
C=CCCCCCC(C)CO,2,4.0591064077192085,1786.6751,194.629,106.16,280.79,C10H20O,2-methyl-8-nonen-1-ol,---,269.1,Yaw
C=CCCCCC(C)CCO,2,4.0591064077192085,1786.6751,194.629,106.16,280.79,C10H20O,3-methyl-8-nonen-1-ol,---,269.1,Yaw
C=CCCCC(C)CCCO,2,4.0591064077192085,1786.6751,194.629,106.16,280.79,C10H20O,4-methyl-8-nonen-1-ol,---,269.1,Yaw
C=CCCC(C)CCCCO,2,4.0591064077192085,1786.6751,194.629,106.16,280.79,C10H20O,5-methyl-8-nonen-1-ol,---,269.1,Yaw
C=CCC(C)CCCCCO,2,4.0591064077192085,1786.6751,194.629,106.16,280.79,C10H20O,6-methyl-8-nonen-1-ol,---,269.1,Yaw
C=CC(C)CCCCCCO,2,4.0591064077192085,1786.6751,194.629,106.16,280.79,C10H20O,7-methyl-8-nonen-1-ol,---,269.1,Yaw
C=C(C)CCCCCCCO,2,4.0591064077192085,1786.6751,194.629,106.16,280.79,C10H20O,8-methyl-8-nonen-1-ol,---,269.1,Yaw
C=C(C)CCCC(C)CCO,2,4.074626407719209,1792.929,194.487,106.57,280.64,C10H20O,alpha-citronellol,6812-78-8,269.1,Yaw
CC(C)=CCCC(C)CCO,2,4.074626407719209,1792.929,194.487,106.57,280.64,C10H20O,"beta-citronellol, (R) - (+)",1117-61-9,269.1,Yaw
CCC(C)(O)CCC=C(C)C,2,4.199596407719208,1843.2466,193.375,109.77,279.43,C10H20O,"3,7-dimethyl-6-octen-3-ol",18479-51-1,269.1,Yaw
CC(C)CC=C(CO)C(C)C,2,4.199596407719208,1843.2466,193.375,109.77,279.43,C10H20O,2-isopropyl-5-methyl-2-hexen-1-ol,40853-53-0,269.1,Yaw
C=COCC(CC)CCCC,2,5.502286407719209,2139.731,198.345,91.47,213.04,C10H20O,2-ethylhexyl vinyl ether,103-44-6,173.15,Yaw
C=COCCCCCCCC,"1,2",4.707526407719208,1841.6151,204.356,75.17,213.58,C10H20O,octyl vinyl ether,929-62-4,173.15,Yaw
CC(C)CCCC(C)CC=O,3,2.000116407719209,840.1164,199.497,16.98,294.95,C10H20O,tetrahydroneral,5988-91-0,268.51908543601604,ML
CCCCCCCCCC(=O)O,"1,2",5.031056407719209,1912.0384,123.197,153.43,281.04,C10H20O2,decanoic acid,334-48-5,304.15,Yaw
CCCCCCCC(C)C(=O)O,2,4.703986407719209,2101.5662,183.784,135.37,293.52,C10H20O2,2-methylnonanoic acid,24323-21-5,272.5475497858679,ML
CCCCCCC(C)CC(=O)O,2,4.703986407719209,2101.5662,183.784,135.37,293.52,C10H20O2,3-methylnonanoic acid,35205-79-9,274.75019620360473,ML
CCCCCC(C)CCC(=O)O,2,4.703986407719209,2101.5662,183.784,135.37,293.52,C10H20O2,4-methylnonanoic acid,45019-28-1,279.1214714354315,ML
CCCCC(C)CCCC(=O)O,2,4.703986407719209,2101.5662,183.784,135.37,293.52,C10H20O2,5-methylnonanoic acid,---,281.27879262349524,ML
CCCC(C)CCCCC(=O)O,2,4.703986407719209,2101.5662,183.784,135.37,293.52,C10H20O2,6-methylnonanoic acid,---,280.8664215561439,ML
CCC(C)CCCCCC(=O)O,2,4.703986407719209,2101.5662,183.784,135.37,293.52,C10H20O2,7-methylnonanoic acid,---,281.0724157656812,ML
CC(C)CCCCCCC(=O)O,2,4.703986407719209,2101.5662,183.784,135.37,293.52,C10H20O2,8-methylnonanoic acid,5963-14-4,281.589456102907,ML
CCCCCCC(C)(C)C(=O)O,2,4.420716407719208,1984.8463,186.008,128.97,295.79,C10H20O2,"2,2-dimethyloctanoic acid",29662-90-6,266.439409557416,ML
CCCCCC(C)C(C)C(=O)O,2,4.420716407719208,1984.8463,186.008,128.97,295.79,C10H20O2,"2,3-dimethyloctanoic acid",---,270.2102247052742,ML
CCCCC(C)CC(C)C(=O)O,2,4.420716407719208,1984.8463,186.008,128.97,295.79,C10H20O2,"2,4-dimethyloctanoic acid",---,271.41329522860707,ML
CCCC(C)CCC(C)C(=O)O,2,4.420716407719208,1984.8463,186.008,128.97,295.79,C10H20O2,"2,5-dimethyloctanoic acid",---,269.39581405242774,ML
CCC(C)CCCC(C)C(=O)O,2,4.420716407719208,1984.8463,186.008,128.97,295.79,C10H20O2,"2,6-dimethyloctanoic acid",---,269.60207242497313,ML
CC(C)CCCCC(C)C(=O)O,2,4.420716407719208,1984.8463,186.008,128.97,295.79,C10H20O2,"2,7-dimethyloctanoic acid",---,269.73534490007404,ML
CCCCCCC(CC)C(=O)O,2,4.5944864077192085,2056.481,184.618,132.97,294.36,C10H20O2,2-ethyloctanoic acid,25234-25-7,273.2787437972047,ML
CCCCCC(CC)CC(=O)O,2,4.5944864077192085,2056.481,184.618,132.97,294.36,C10H20O2,3-ethyloctanoic acid,---,274.75759036394396,ML
CCCCC(CC)CCC(=O)O,2,4.5944864077192085,2056.481,184.618,132.97,294.36,C10H20O2,4-ethyloctanoic acid,16493-80-4,274.6234534869814,ML
CCCC(CC)CCCC(=O)O,2,4.5944864077192085,2056.481,184.618,132.97,294.36,C10H20O2,5-ethyloctanoic acid,---,279.42756321092486,ML
CCC(CC)CCCCC(=O)O,2,4.5944864077192085,2056.481,184.618,132.97,294.36,C10H20O2,6-ethyloctanoic acid,---,280.14587685159626,ML
CCCCCC(CCC)C(=O)O,2,4.741396407719209,2116.9652,183.506,136.17,293.25,C10H20O2,2-propylheptanoic acid,31080-39-4,270.3994431246701,ML
CCC(C)(CCC(C)C)C(=O)O,2,4.741396407719209,2116.9652,183.506,136.17,293.25,C10H20O2,"2,5-dimethyl-2-ethylhexanoic acid",26896-20-8,266.8553793788147,ML
CCCCCCCCCOC=O,2,5.558066407719208,2207.8329,194.626,102.17,225.35,C10H20O2,nonyl formate,5451-92-3,239.05,Yaw
CCCCCCCC(C)OC=O,2,5.057466407719208,2023.0378,197.406,94.17,227.92,C10H20O2,1-methyloctyl formate,---,239.05,Yaw
CCCCCCC(C)COC=O,2,5.057466407719208,2023.0378,197.406,94.17,227.92,C10H20O2,2-methyloctyl formate,---,239.05,Yaw
CCCCCC(C)CCOC=O,2,5.057466407719208,2023.0378,197.406,94.17,227.92,C10H20O2,3-methyloctyl formate,---,239.05,Yaw
CCCCC(C)CCCOC=O,2,5.057466407719208,2023.0378,197.406,94.17,227.92,C10H20O2,4-methyloctyl formate,---,239.05,Yaw
CCCC(C)CCCCOC=O,2,5.057466407719208,2023.0378,197.406,94.17,227.92,C10H20O2,5-methyloctyl formate,---,239.05,Yaw
CCC(C)CCCCCOC=O,2,5.057466407719208,2023.0378,197.406,94.17,227.92,C10H20O2,6-methyloctyl formate,---,239.05,Yaw
CC(C)CCCCCCOC=O,2,5.057466407719208,2023.0378,197.406,94.17,227.92,C10H20O2,7-methyloctyl formate,65155-46-6,239.05,Yaw
CCCCCCC(C)(C)OC=O,2,4.625656407719209,1863.1678,200.186,86.17,230.64,C10H20O2,"1,1-dimethylheptyl formate",---,239.05,Yaw
CCCCCC(C)C(C)OC=O,2,4.625656407719209,1863.1678,200.186,86.17,230.64,C10H20O2,"1,2-dimethylheptyl formate",---,239.05,Yaw
CCCCC(C)CC(C)OC=O,2,4.625656407719209,1863.1678,200.186,86.17,230.64,C10H20O2,"1,3-dimethylheptyl formate",---,239.05,Yaw
CCCC(C)CCC(C)OC=O,2,4.625656407719209,1863.1678,200.186,86.17,230.64,C10H20O2,"1,4-dimethylheptyl formate",---,239.05,Yaw
CCC(C)CCCC(C)OC=O,2,4.625656407719209,1863.1678,200.186,86.17,230.64,C10H20O2,"1,5-dimethylheptyl formate",---,239.05,Yaw
CC(C)CCCCC(C)OC=O,2,4.625656407719209,1863.1678,200.186,86.17,230.64,C10H20O2,"1,6-dimethylheptyl formate",---,239.05,Yaw
CCCCCCC(CC)OC=O,2,4.791056407719209,1924.4629,199.074,89.37,229.53,C10H20O2,1-ethylheptyl formate,---,239.05,Yaw
CCCCCC(CC)COC=O,2,4.791056407719209,1924.4629,199.074,89.37,229.53,C10H20O2,2-ethylheptyl formate,94200-06-3,239.05,Yaw
CCCCC(CC)CCOC=O,2,4.791056407719209,1924.4629,199.074,89.37,229.53,C10H20O2,3-ethylheptyl formate,---,239.05,Yaw
CCCC(CC)CCCOC=O,2,4.791056407719209,1924.4629,199.074,89.37,229.53,C10H20O2,4-ethylheptyl formate,---,239.05,Yaw
CCC(CC)CCCCOC=O,2,4.791056407719209,1924.4629,199.074,89.37,229.53,C10H20O2,5-ethylheptyl formate,---,239.05,Yaw
CCCCCCCCOC(C)=O,"1,2",4.649226407719208,1894.7191,197.684,92.47,238.06,C10H20O2,octyl acetate,112-14-1,234.65,Yaw
CCCCCCC(C)OC(C)=O,2,4.3939164077192086,1777.1573,201.854,81.37,232.35,C10H20O2,1-methylheptyl acetate,2051-50-5,207.4,Yaw
CCCCC(C)CCOC(C)=O,2,4.3939164077192086,1777.1573,201.854,81.37,232.35,C10H20O2,3-methylheptyl acetate,72218-58-7,207.4,Yaw
CCCC(C)CCCOC(C)=O,2,4.3939164077192086,1777.1573,201.854,81.37,232.35,C10H20O2,4-methylheptyl acetate,---,207.4,Yaw
CCC(C)CCCCOC(C)=O,2,4.3939164077192086,1777.1573,201.854,81.37,232.35,C10H20O2,5-methylheptyl acetate,---,207.4,Yaw
CC(=O)OCCCCCC(C)C,2,4.3939164077192086,1777.1573,201.854,81.37,232.35,C10H20O2,6-methylheptyl acetate,31565-19-2,207.4,Yaw
CCC(CCC(C)C)OC(C)=O,2,3.988926407719209,1624.9994,204.773,72.07,235.86,C10H20O2,6-methyl-3-heptyl acetate,32764-34-4,207.4,Yaw
CCCCCC(C)(C)OC(C)=O,2,4.045956407719209,1647.6666,204.634,73.37,235.34,C10H20O2,"1,1-dimethylhexyl acetate",---,207.4,Yaw
CCCCC(C)C(C)OC(C)=O,2,4.045956407719209,1647.6666,204.634,73.37,235.34,C10H20O2,"1,2-dimethylhexyl acetate",---,207.4,Yaw
CCCC(C)CC(C)OC(C)=O,2,4.045956407719209,1647.6666,204.634,73.37,235.34,C10H20O2,"1,3-dimethylhexyl acetate",---,207.4,Yaw
CCC(C)CCC(C)OC(C)=O,2,4.045956407719209,1647.6666,204.634,73.37,235.34,C10H20O2,"1,4-dimethylhexyl acetate",---,207.4,Yaw
CC(=O)OC(C)CCCC(C)C,2,4.070096407719209,1655.235,204.078,74.07,235.09,C10H20O2,"1,5-dimethylhexyl acetate",67952-57-2,207.4,Yaw
CCC(C)C(C)CCOC(C)=O,2,4.045956407719209,1647.6666,204.634,73.37,235.34,C10H20O2,"3,4-dimethylhexyl acetate",108419-32-5,207.4,Yaw
CCCCCC(CC)OC(C)=O,2,4.1120564077192086,1672.3004,204.078,74.97,234.73,C10H20O2,1-ethylhexyl acetate,4864-61-3,207.4,Yaw
CCCCC(CC)COC(C)=O,"1,2",4.667686407719208,1865.1064,200.528,84.29,226.6,C10H20O2,2-ethylhexyl acetate,103-09-3,180.15,Yaw
CCCC(CC)CCOC(C)=O,2,4.1798364077192085,1697.5422,203.522,76.57,234.12,C10H20O2,3-ethylhexyl acetate,---,207.4,Yaw
CCC(CC)CCCOC(C)=O,2,4.1798364077192085,1697.5422,203.522,76.57,234.12,C10H20O2,4-ethylhexyl acetate,---,207.4,Yaw
CCCCCCCOC(=O)CC,"1,2",4.575816407719208,1865.6697,197.684,91.27,238.75,C10H20O2,heptyl propanoate,2216-81-1,222.25,Yaw
CCCCCC(C)OC(=O)CC,2,4.477246407719209,1804.6353,200.464,83.37,231.66,C10H20O2,1-methylhexyl propanoate,---,222.25,Yaw
CCCCC(C)COC(=O)CC,2,4.477246407719209,1804.6353,200.464,83.37,231.66,C10H20O2,2-methylhexyl propanoate,---,222.25,Yaw
CCCC(C)CCOC(=O)CC,2,4.477246407719209,1804.6353,200.464,83.37,231.66,C10H20O2,3-methylhexyl propanoate,---,222.25,Yaw
CCC(=O)OCCCC(C)CC,2,4.477246407719209,1804.6353,200.464,83.37,231.66,C10H20O2,4-methylhexyl propanoate,---,222.25,Yaw
CCC(=O)OCCCCC(C)C,2,4.477246407719209,1804.6353,200.464,83.37,231.66,C10H20O2,5-methylhexyl propanoate,---,222.25,Yaw
CCCCC(C)(C)OC(=O)CC,2,4.118566407719209,1671.5138,203.244,75.37,234.61,C10H20O2,"1,1-dimethylpentyl propanoate",---,222.25,Yaw
CCCC(C)C(C)OC(=O)CC,2,4.118566407719209,1671.5138,203.244,75.37,234.61,C10H20O2,"1,2-dimethylpentyl propanoate",---,222.25,Yaw
CCC(=O)OC(C)CC(C)CC,2,4.118566407719209,1671.5138,203.244,75.37,234.61,C10H20O2,"1,3-dimethylpentyl propanoate",---,222.25,Yaw
CCC(=O)OC(C)CCC(C)C,2,4.118566407719209,1671.5138,203.244,75.37,234.61,C10H20O2,"1,4-dimethylpentyl propanoate",---,222.25,Yaw
CCCCC(CC)OC(=O)CC,2,4.256486407719208,1722.7545,202.132,78.57,233.41,C10H20O2,1-ethylpentyl propanoate,---,222.25,Yaw
CCCC(CC)COC(=O)CC,2,4.256486407719208,1722.7545,202.132,78.57,233.41,C10H20O2,2-ethylpentyl propanoate,---,222.25,Yaw
CCC(=O)OCCC(CC)CC,2,4.256486407719208,1722.7545,202.132,78.57,233.41,C10H20O2,3-ethylpentyl propanoate,---,222.25,Yaw
CCCCCCOC(=O)CCC,"1,2",4.640356407719208,1871.6435,198.24,88.77,233.08,C10H20O2,hexyl butanoate,2639-63-6,195.15,Yaw
CCCCC(C)OC(=O)CCC,2,4.4017064077192085,1776.637,201.02,81.77,232.23,C10H20O2,1-methylpentyl butanoate,6963-52-6,195.15,Yaw
CCCC(=O)OCC(C)CCC,2,4.4017064077192085,1776.637,201.02,81.77,232.23,C10H20O2,2-methylpentyl butanoate,---,195.15,Yaw
CCCC(=O)OCCC(C)CC,2,4.4017064077192085,1776.637,201.02,81.77,232.23,C10H20O2,3-methylpentyl butanoate,84254-83-1,195.15,Yaw
CCCC(=O)OCCCC(C)C,2,4.4017064077192085,1776.637,201.02,81.77,232.23,C10H20O2,4-methylpentyl butanoate,---,195.15,Yaw
CCCC(=O)OC(C)(C)CCC,2,4.052176407719209,1646.8226,203.8,73.77,235.22,C10H20O2,"1,1-dimethylbutyl butanoate",---,195.15,Yaw
CCCC(=O)OC(C)C(C)CC,2,4.052176407719209,1646.8226,203.8,73.77,235.22,C10H20O2,"1,2-dimethylbutyl butanoate",---,195.15,Yaw
CCCC(=O)OC(C)CC(C)C,2,4.052176407719209,1646.8226,203.8,73.77,235.22,C10H20O2,"1,3-dimethylbutyl butanoate",---,195.15,Yaw
CCCC(=O)OC(CC)CCC,2,4.186646407719208,1696.8166,202.688,76.97,234.0,C10H20O2,1-ethylbutyl butanoate,---,195.15,Yaw
CCCC(=O)OCC(CC)CC,2,4.186646407719208,1696.8166,202.688,76.97,234.0,C10H20O2,2-ethylbutyl butanoate,74398-53-1,195.15,Yaw
CCCCCCOC(=O)C(C)C,2,4.4017064077192085,1776.637,201.02,81.77,232.23,C10H20O2,hexyl isobutanoate,2349-07-7,195.15,Yaw
CCCCC(C)OC(=O)C(C)C,2,4.052176407719209,1646.8226,203.8,73.77,235.22,C10H20O2,1-methylpentyl isobutanoate,---,195.15,Yaw
CCCC(C)COC(=O)C(C)C,2,4.052176407719209,1646.8226,203.8,73.77,235.22,C10H20O2,2-methylpentyl isobutanoate,---,195.15,Yaw
CC(C)CCCOC(=O)C(C)C,2,4.052176407719209,1646.8226,203.8,73.77,235.22,C10H20O2,4-methylpentyl isobutanoate,35852-44-9,195.15,Yaw
CCCC(C)(C)OC(=O)C(C)C,2,3.743516407719208,1531.7884,206.58,65.77,238.39,C10H20O2,"1,1-dimethylbutyl isobutanoate",---,195.15,Yaw
CCC(C)C(C)OC(=O)C(C)C,2,3.743516407719208,1531.7884,206.58,65.77,238.39,C10H20O2,"1,2-dimethylbutyl isobutanoate",---,195.15,Yaw
CC(C)CC(C)OC(=O)C(C)C,2,3.743516407719208,1531.7884,206.58,65.77,238.39,C10H20O2,"1,3-dimethylbutyl isobutanoate",---,195.15,Yaw
CCCC(CC)OC(=O)C(C)C,2,3.8625464077192087,1576.1983,205.468,68.97,237.1,C10H20O2,1-ethylbutyl isobutanoate,---,195.15,Yaw
CCC(CC)COC(=O)C(C)C,2,3.8625464077192087,1576.1983,205.468,68.97,237.1,C10H20O2,2-ethylbutyl isobutanoate,---,195.15,Yaw
CCC(C)CCOC(=O)C(C)C,2,3.8625464077192087,1576.1983,205.468,68.97,237.1,C10H20O2,3-ethylbutyl isobutanoate,---,195.15,Yaw
CCCCCOC(=O)CCCC,"1,2",4.4440064077192085,1801.0907,199.436,85.33,235.3,C10H20O2,pentyl pentanoate,2173-56-0,194.35,Yaw
CCCCC(=O)OC(C)CCC,2,4.245896407719209,1718.8224,202.216,78.33,233.5,C10H20O2,1-methylbutyl pentanoate,---,204.68,Yaw
CCCCC(=O)OCC(C)CC,2,4.245896407719209,1718.8224,202.216,78.33,233.5,C10H20O2,2-methylbutyl pentanoate,55590-83-5,204.68,Yaw
CCCCC(=O)OCCC(C)C,2,4.245896407719209,1718.8224,202.216,78.33,233.5,C10H20O2,3-methylbutyl pentanoate,2050-09-1,204.68,Yaw
CCCCC(=O)OC(C)(C)CC,2,3.893196407719208,1587.6249,205.19,69.77,236.78,C10H20O2,"1,1-dimethylpropyl pentanoate",---,204.68,Yaw
CCCCC(=O)OC(C)C(C)C,2,3.893196407719208,1587.6249,205.19,69.77,236.78,C10H20O2,"1,2-dimethylpropyl pentanoate",---,204.68,Yaw
CCCCC(=O)OC(CC)CC,2,4.019596407719209,1634.6992,204.078,72.97,235.53,C10H20O2,1-ethylpropyl pentanoate,---,204.68,Yaw
CCCCCOC(=O)CC(C)C,2,4.245896407719209,1718.8224,202.216,78.33,233.5,C10H20O2,pentyl isopentanoate,---,204.68,Yaw
CCCC(C)OC(=O)CC(C)C,2,3.914876407719208,1595.7032,204.996,70.33,236.56,C10H20O2,1-methylbutyl isopentanoate,---,204.68,Yaw
CCC(C)COC(=O)CC(C)C,2,3.914876407719208,1595.7032,204.996,70.33,236.56,C10H20O2,2-methylbutyl isopentanoate,2445-77-4,204.68,Yaw
CC(C)CCOC(=O)CC(C)C,"1,2",4.660416407719208,1829.5973,202.132,77.57,217.56,C10H20O2,3-methylbutyl isopentanoate,659-70-1,215.0,Yaw
CCC(C)(C)OC(=O)CC(C)C,2,3.577226407719208,1468.2203,207.831,61.17,240.32,C10H20O2,"1,1-dimethylpropyl isopentanoate",542-37-0,204.68,Yaw
CC(C)CC(=O)OC(C)C(C)C,2,3.602336407719209,1479.0269,207.97,61.77,240.04,C10H20O2,"1,2-dimethylpropyl isopentanoate",---,204.68,Yaw
CCC(CC)OC(=O)CC(C)C,2,3.7146264077192086,1520.9987,206.858,64.97,238.71,C10H20O2,1-ethylpropyl isopentanoate,---,204.68,Yaw
CCCCCOC(=O)C(C)CC,2,3.914876407719208,1595.7032,204.996,70.33,236.56,C10H20O2,pentyl tert-pentanoate,---,204.68,Yaw
CCCC(C)OC(=O)C(C)CC,2,3.621616407719209,1486.2382,207.776,62.33,239.81,C10H20O2,1-methylbutyl tert-pentanoate,---,204.68,Yaw
CCC(C)COC(=O)C(C)CC,2,3.621616407719209,1486.2382,207.776,62.33,239.81,C10H20O2,2-methylbutyl tert-pentanoate,---,204.68,Yaw
CCC(C)C(=O)OCCC(C)C,2,3.621616407719209,1486.2382,207.776,62.33,239.81,C10H20O2,3-methylbutyl tert-pentanoate,---,204.68,Yaw
CCC(C)C(=O)OC(C)(C)CC,2,3.3427464077192086,1381.7366,210.75,53.77,243.51,C10H20O2,"1,1-dimethylpropyl tert-pentanoate",---,204.68,Yaw
CCC(C)C(=O)OC(C)C(C)C,2,3.3427464077192086,1381.7366,210.75,53.77,243.51,C10H20O2,"1,2-dimethylpropyl tert-pentanoate",---,204.68,Yaw
CCC(CC)OC(=O)C(C)CC,2,3.4431564077192087,1419.4151,209.638,56.97,242.1,C10H20O2,1-ethylpropyl tert-pentanoate,---,204.68,Yaw
CCCCCC(=O)OCCCC,"1,2",4.537386407719208,1842.0895,198.24,88.77,236.59,C10H20O2,butyl hexanoate,626-82-4,208.85,Yaw
CCCCCC(=O)OCC(C)C,"1,2",3.1499464077192085,1301.8104,213.28,45.49,243.67,C10H20O2,isobutyl hexanoate,105-79-3,208.85,Yaw
CC(C)CCC(=O)OCC(C)C,2,3.536806407719209,1453.1051,208.248,59.97,240.83,C10H20O2,isobutyl 4-methylpentanoate,25415-70-7,208.85,Yaw