smiles,code,A [log10(atm)],B [C],C [C],TMIN [C],TMAX [C],FORMULA,NAME,CAS No,mp [K],mp_type
CC=C=CCC,"1,2",4.068366407719209,1196.4273,226.08,-24.97,91.5,C6H10,"2,3-hexadiene",592-49-4,178.25,Yaw
CC=CC=CC,"1,2",4.696686407719208,1477.9274,233.824,-9.13,102.4,C6H10,"2,4-hexadiene",592-46-1,194.15,Yaw
C=C=C(C)CC,2,4.033386407719209,1192.8792,225.7,-24.0,93.9,C6H10,"3-methyl-1,2-pentadiene",7417-48-3,178.25,Yaw
C=C=CC(C)C,"1,2",4.029646407719208,1190.9625,225.7,-24.2,93.71,C6H10,"4-methyl-1,2-pentadiene",13643-05-5,178.25,Yaw
C=C(C)C=CC,"1,2",4.715676407719209,1466.3542,235.103,-14.9,97.05,C6H10,"2-methyl-1,3-pentadiene",1118-58-7,258.25,Yaw
C=CC(C)=CC,"1,2",4.7376664077192086,1476.7708,234.658,-11.53,98.2,C6H10,"3-methyl-1,3-pentadiene",4549-74-0,178.25,Yaw
C=CC=C(C)C,"1,2",4.006696407719208,1206.2284,224.503,-19.62,101.01,C6H10,"4-methyl-1,3-pentadiene",926-56-7,178.25,Yaw
C=CCC(=C)C,"1,2",3.7860164077192087,1081.0985,229.5,-38.72,80.72,C6H10,"2-methyl-1,4-pentadiene",763-30-4,178.25,Yaw
C=CC(C)C=C,"1,2",4.019296407719208,1143.8911,228.55,-34.67,79.09,C6H10,"3-methyl-1,4-pentadiene",1115-08-8,178.25,Yaw
CC=C=C(C)C,"1,2",4.069226407719209,1205.1838,225.32,-22.77,94.51,C6H10,"2-methyl-2,3-pentadiene",3043-33-2,178.25,Yaw
C=CC(=C)CC,"1,2",4.125766407719208,1227.8293,224.75,-20.34,96.27,C6H10,"2-ethyl-1,3-butadiene",3404-63-5,178.25,Yaw
C=C(C)C(=C)C,"1,2",4.035226407719208,1204.1597,229.562,-26.02,92.91,C6H10,"2,3-dimethyl-1,3-butadiene",513-81-5,197.15,Yaw
C#CCCCC,"1,2",4.338856407719208,1336.5565,236.713,-21.82,94.3,C6H10,1-hexyne,693-02-7,141.25,Yaw
CC#CCCC,"1,2",4.011616407719209,1229.1931,221.889,-13.28,109.38,C6H10,2-hexyne,764-35-2,183.65,Yaw
CCC#CCC,"1,2",4.134426407719209,1318.1504,237.623,-18.49,106.24,C6H10,3-hexyne,928-49-4,170.05,Yaw
C#CC(C)CC,"1,2",3.986316407719209,1114.1011,222.482,-32.59,79.83,C6H10,3-methyl-1-pentyne,922-59-8,170.22,Yaw
C#CCC(C)C,"1,2",3.9796864077192087,1131.8004,222.895,-29.77,84.77,C6H10,4-methyl-1-pentyne,7154-75-8,168.55,Yaw
CC#CC(C)C,"1,2",3.9622564077192086,1158.6232,220.415,-22.13,96.04,C6H10,4-methyl-2-pentyne,21020-27-9,162.85,Yaw
C#CC(C)(C)C,"1,2",3.858076407719208,1009.7601,224.226,-48.28,59.65,C6H10,"3,3-dimethyl-1-butyne",917-92-0,194.95,Yaw
C1C[C@H]2C[C@H]2C1,3,4.344846407719209,1516.8313,264.059,-20.42,111.04,C6H10,cis-bicyclo[3.1.0]hexane,285-58-5,250.66618549292187,ML
CC1CC(C)C1,3,3.3220264077192088,1189.9527,273.15,-44.44,120.74,C6H10,"1,3-dimethylcyclobutene",7411-24-7,146.5013991220807,ML
BrC1CCCCC1Br,3,6.5259764077192095,3325.7315,304.879,90.72,229.38,C6H10Br2,"trans-1,2-dibromocyclohexane",7429-37-0,271.15,Yaw
CCC(F)C(=O)OCCCl,3,6.807386407719209,3152.8,273.15,89.73,211.42,C6H10ClFO2,2-chloroethyl 2-fluorobutanoate,900000-65-9,254.82257720708094,ML
ClC1(Cl)CCCCC1,3,3.4546864077192083,1305.2946,196.333,48.31,217.57,C6H10Cl2,"1,1-dichlorocyclohexane",2108-92-1,226.15,Yaw
Cl[C@H]1CCCC[C@H]1Cl,3,5.875026407719208,2575.6169,256.901,75.19,205.18,C6H10Cl2,"cis-1,2-dichlorocyclohexane",10498-35-8,271.65,Yaw
CC(C)COC(=O)C(Cl)Cl,3,2.8702164077192087,1427.1582,232.71,27.85,322.78,C6H10Cl2O2,"dichloroacetic acid, 2-methylpropyl ester",37079-08-6,243.27357447196175,ML
C=CC[Si](Cl)(Cl)CC=C,3,4.434536407719208,1759.15,231.34,47.21,194.24,C6H10Cl2Si,diallyldichlorosilane,3651-23-8,299.28012648622365,ML
CC(F)CC(=O)OCCF,3,6.405286407719208,2861.0,273.15,72.13,195.54,C6H10F2O2,2-fluoroethyl 3-fluorobutanoate,900000-66-0,232.89077291822255,ML
CC(=O)C=C(C)C,"1,2",4.247696407719209,1483.4864,219.745,22.32,156.14,C6H10O,mesityl oxide,141-79-7,220.15,Yaw
C=CCOCC=C,"1,2",4.640176407719209,1503.1036,229.932,0.57,116.47,C6H10O,diallyl ether,557-40-4,267.15,Yaw
CCC(=C=O)CC,2,2.8386964077192083,1050.7101,231.461,-8.83,182.58,C6H10O,2-ethyl-1-buten-1-one,24264-08-2,202.1,Yaw
CCC=CC(C)=O,2,4.414466407719209,1570.7625,217.144,32.37,164.72,C6H10O,3-hexen-2-one,763-93-9,202.1,Yaw
CC=CCC(C)=O,"1,2",4.001816407719208,1427.8797,220.758,21.97,165.07,C6H10O,4-hexen-2-one,25659-22-7,202.1,Yaw
CC=CC(=O)CC,2,4.351496407719209,1550.1699,217.561,31.17,165.15,C6H10O,4-hexen-3-one,2497-21-4,202.1,Yaw
C=CCCC(C)=O,"1,2",4.418376407719209,1537.2126,220.063,23.97,153.29,C6H10O,5-hexen-2-one,109-49-9,202.1,Yaw
CC/C=C/C(C)=O,2,4.414466407719209,1570.7625,217.144,32.37,164.72,C6H10O,trans-3-hexen-2-one,4376-23-2,202.1,Yaw
C=C(C)C(=O)CC,2,3.628786407719209,1312.8898,223.121,15.17,171.41,C6H10O,2-methyl-1-penten-3-one,25044-01-3,203.65,Yaw
C=C(C)CC(C)=O,2,3.815256407719208,1361.535,218.188,20.84,169.25,C6H10O,4-methyl-4-penten-2-one,3744-02-3,200.55,Yaw
CC=C(C)C(C)=O,"1,2",4.358216407719208,1550.3771,217.686,30.81,164.44,C6H10O,3-methyl-3-penten-2-one,565-62-8,202.1,Yaw
C=CC(O)C=CC,2,4.773776407719208,1687.3373,219.783,33.78,157.47,C6H10O,"1,4-hexadien-3-ol",1070-14-0,303.65,Yaw
C=CCC(O)C=C,"1,2",4.927456407719209,1736.9344,218.951,36.17,156.49,C6H10O,"1,5-hexadien-3-ol",924-41-4,303.65,Yaw
CC=CC=CCO,2,4.773776407719208,1687.3373,219.783,33.78,157.47,C6H10O,"2,4-hexadien-1-ol",111-28-4,303.65,Yaw
C=CC=CC(C)O,2,4.773776407719208,1687.3373,219.783,33.78,157.47,C6H10O,"3,5-hexadien-2-ol",3280-51-1,303.65,Yaw
CCCC=CC=O,2,5.094536407719208,1778.0682,215.337,39.57,155.6,C6H10O,2-hexenal,505-57-7,207.15,Yaw
CCC=CCC=O,2,4.215446407719209,1493.5191,220.619,24.37,160.92,C6H10O,3-hexenal,4440-65-7,195.15,Yaw
CC=CCCC=O,2,4.338016407719208,1533.3156,219.783,26.78,160.03,C6H10O,4-hexenal,2100-19-8,195.15,Yaw
CCC=C(C)C=O,"1,2",4.518946407719208,1599.6095,217.978,31.97,161.26,C6H10O,2-methyl-2-pentenal,623-36-9,195.15,Yaw
CCC(C)=CC=O,2,4.615256407719208,1623.1729,218.02,31.85,158.22,C6H10O,3-methyl-2-pentenal,3592-19-6,195.15,Yaw
CC(C)C=CC=O,2,4.235436407719209,1500.0128,220.48,24.77,160.77,C6H10O,4-methyl-2-pentenal,5362-56-1,195.15,Yaw
CC=CC(C)C=O,2,4.615256407719208,1623.1729,218.02,31.85,158.22,C6H10O,2-methyl-3-pentenal,---,195.15,Yaw
CC=C(C)CC=O,2,4.615256407719208,1623.1729,218.02,31.85,158.22,C6H10O,3-methyl-3-pentenal,---,195.15,Yaw
CC(C)=CCC=O,2,4.615256407719208,1623.1729,218.02,31.85,158.22,C6H10O,4-methyl-3-pentenal,5362-50-5,195.15,Yaw
C=CCC(C)C=O,2,4.615256407719208,1623.1729,218.02,31.85,158.22,C6H10O,2-methyl-4-pentenal,---,195.15,Yaw
C=CC(C)CC=O,2,4.615256407719208,1623.1729,218.02,31.85,158.22,C6H10O,3-methyl-4-pentenal,---,195.15,Yaw
C=C(C)CCC=O,2,4.615256407719208,1623.1729,218.02,31.85,158.22,C6H10O,4-methyl-4-pentenal,---,195.15,Yaw
CC(C)=C(C)C=O,2,4.189676407719209,1485.1461,220.8,23.85,161.12,C6H10O,"2,3-dimethyl-2-butenal",---,195.15,Yaw
C=CC(C)(C)C=O,2,4.189676407719209,1485.1461,220.8,23.85,161.12,C6H10O,"2,2-dimethyl-3-butenal",---,195.15,Yaw
C=C(C)C(C)C=O,2,4.189676407719209,1485.1461,220.8,23.85,161.12,C6H10O,"2,3-dimethyl-3-butenal",---,195.15,Yaw
CC=C(C=O)CC,2,5.113406407719209,1784.155,215.24,39.85,155.5,C6H10O,2-ethylcrotonaldehyde,19780-25-7,195.15,Yaw
CCCC#CCO,3,5.136846407719208,1885.32,213.342,55.0,177.0,C6H10O,2-hexyn-1-ol,764-60-3,220.65,Yaw
CCC#CCCO,3,5.136846407719208,1885.32,213.342,55.0,177.0,C6H10O,3-hexyn-1-ol,1002-28-4,239.15,Yaw
CC#CCCCO,3,5.136846407719208,1885.32,213.342,55.0,177.0,C6H10O,4-hexyn-1-ol,---,239.15,Yaw
C#CCCCCO,3,5.136846407719208,1885.32,213.342,55.0,177.0,C6H10O,5-hexyn-1-ol,928-90-5,239.15,Yaw
CCC#CC(C)O,3,5.136846407719208,1885.32,213.342,55.0,177.0,C6H10O,3-hexyn-2-ol,109-50-2,239.15,Yaw
CC#CCC(C)O,3,5.136846407719208,1885.32,213.342,55.0,177.0,C6H10O,4-hexyn-2-ol,---,239.15,Yaw
C#CCCC(C)O,3,5.136846407719208,1885.32,213.342,55.0,177.0,C6H10O,5-hexyn-2-ol,23470-12-4,239.15,Yaw
CC#CC(O)CC,3,5.136846407719208,1885.32,213.342,55.0,177.0,C6H10O,4-hexyn-3-ol,---,239.15,Yaw
C#CC(O)CCC,"1,2",5.142216407719209,1845.2375,216.491,46.0,165.0,C6H10O,1-hexyn-3-ol,105-31-7,193.15,Yaw
C#CCC(O)CC,3,5.136846407719208,1885.32,213.342,55.0,177.0,C6H10O,5-hexyn-3-ol,---,239.15,Yaw
CC(C)C#CCO,3,5.136846407719208,1885.32,213.342,55.0,177.0,C6H10O,4-methyl-2-pentyn-1-ol,---,239.15,Yaw
CC#CC(C)CO,3,5.136846407719208,1885.32,213.342,55.0,177.0,C6H10O,2-methyl-3-pentyn-1-ol,---,239.15,Yaw
C#CCC(C)CO,3,5.136846407719208,1885.32,213.342,55.0,177.0,C6H10O,2-methyl-4-pentyn-1-ol,---,239.15,Yaw
C#CC(C)CCO,3,5.136846407719208,1885.32,213.342,55.0,177.0,C6H10O,3-methyl-4-pentyn-1-ol,---,239.15,Yaw
C#CC(C)(O)CC,"1,2",5.152876407719209,1770.9355,222.329,29.0,143.0,C6H10O,3-methyl-1-pentyn-3-ol,77-75-8,303.65,Yaw
O=C1CCCCC1,"1,2",4.760456407719208,1894.1173,243.036,42.17,181.71,C6H10O,cyclohexanone,108-94-1,226.15,Yaw
CCCC=CC(=O)O,"1,2",4.788816407719208,1977.1944,195.877,100.57,244.69,C6H10O2,2-hexenoic acid,1191-04-4,309.65,Yaw
CCC=CCC(=O)O,"1,2",4.805886407719209,1952.5859,198.24,93.77,235.2,C6H10O2,3-hexenoic acid,4219-24-3,285.15,Yaw
CC=CCCC(=O)O,2,4.465366407719209,1853.1502,198.24,93.77,246.76,C6H10O2,4-hexenoic acid,---,290.45,Yaw
C=CCCCC(=O)O,2,4.2860664077192085,1784.6967,199.63,89.77,248.22,C6H10O2,5-hexenoic acid,1577-22-6,236.15,Yaw
CCC=C(C)C(=O)O,2,4.246416407719209,1769.5428,199.95,88.85,248.56,C6H10O2,2-methyl-2-pentenoic acid,3142-72-1,290.45,Yaw
CC(C)C=CC(=O)O,2,4.819326407719209,1987.9874,195.738,100.97,244.25,C6H10O2,4-methyl-2-pentenoic acid,10321-71-8,308.15,Yaw
CC=CC(C)C(=O)O,2,4.1505564077192085,1732.8869,200.742,86.57,249.41,C6H10O2,2-methyl-3-pentenoic acid,37674-63-8,290.45,Yaw
C=C(CCC)C(=O)O,2,4.696546407719208,1941.2579,196.572,98.57,245.07,C6H10O2,2-methylenepentanoic acid,5650-75-9,297.55,Yaw
C=CCC(C)C(=O)O,2,4.246416407719209,1769.5428,199.95,88.85,248.56,C6H10O2,2-methyl-4-pentenoic acid,1575-74-2,290.45,Yaw
CC(C)=C(C)C(=O)O,2,3.724576407719209,1569.5336,204.634,75.37,253.82,C6H10O2,"2,3-dimethyl-2-butenoic acid",---,290.45,Yaw
C=CC(C)(C)C(=O)O,"1,2",4.801566407719209,1871.0954,204.634,75.37,211.12,C6H10O2,"2,2-dimethyl-3-butenoic acid",10276-09-2,267.15,Yaw
C=C(C)C(C)C(=O)O,2,3.724576407719209,1569.5336,204.634,75.37,253.82,C6H10O2,"2,3-dimethyl-3-butenoic acid",---,290.45,Yaw
CC=C(CC)C(=O)O,2,4.5026364077192085,1867.3653,197.962,94.57,246.48,C6H10O2,2-ethyl-2-butenoic acid,---,290.45,Yaw
CCC(C)=CC(=O)O,2,4.5026364077192085,1867.3653,197.962,94.57,246.48,C6H10O2,3-ethyl-2-butenoic acid,---,290.45,Yaw
O=C1CCCCCO1,3,13.08252640771921,5524.3311,268.612,100.58,163.6,C6H10O2,epsilon-caprolactone,502-44-3,271.85,Yaw
C=C(C)C(=O)OCC,"1,2",4.239796407719209,1477.1489,229.851,11.49,145.18,C6H10O2,ethyl methacrylate,97-63-2,231.4460850866811,ML
C=CC(=O)OCCC,2,4.447426407719209,1541.6472,222.982,20.63,148.82,C6H10O2,propyl acrylate,925-60-0,310.37,Yaw
CC=CCOC(C)=O,2,5.160316407719209,1770.1145,219.368,32.03,144.91,C6H10O2,2-buten-1-yl acetate,628-08-0,310.37,Yaw
C=CCOC(=O)CC,2,4.666626407719209,1612.4443,221.87,24.4,147.48,C6H10O2,allyl propanoate,2408-20-0,310.37,Yaw
C=CCC(=O)OCC,2,4.447426407719209,1541.6472,222.982,20.63,148.82,C6H10O2,ethyl 3-butenoate,1617-18-1,310.37,Yaw
CC=CC(=O)OCC,2,5.379926407719209,1839.4653,218.256,35.09,143.92,C6H10O2,ethyl cis-2-butenoate,6776-19-8,310.37,Yaw
C=COC(=O)CCC,"1,2",4.750456407719208,1612.6446,223.622,19.57,138.82,C6H10O2,vinyl butanoate,123-20-6,310.37,Yaw
CC=C(C)C(=O)OC,2,5.545206407719208,1891.3495,217.422,37.22,143.23,C6H10O2,methyl 2-methyl-2-butenoate,6622-76-0,310.37,Yaw
COC(=O)C=C(C)C,2,5.407386407719208,1848.1027,218.117,35.46,143.8,C6H10O2,methyl 3-methyl-2-butenoate,924-50-5,310.37,Yaw
CC/C=C/C(=O)OC,2,7.290756407719208,2439.9591,211.009,55.03,138.07,C6H10O2,methyl trans-2-pentenoate,15790-88-2,310.37,Yaw
C/C=C/CC(=O)OC,2,7.290756407719208,2439.9591,211.009,55.03,138.07,C6H10O2,methyl trans-3-pentenoate,20515-19-9,310.37,Yaw
C=CCOCC1CO1,"1,2",4.353786407719209,1570.7458,206.887,40.1,180.69,C6H10O2,allyl glycidyl ether,106-92-3,173.15,Yaw
CCC(=O)CC(C)=O,"1,2",4.575476407719209,1691.2527,211.584,50.37,184.08,C6H10O2,"2,4-hexanedione",3002-24-2,265.4,Yaw
CCC(=O)C(=O)CC,"1,2",4.742356407719209,1631.2498,219.924,26.37,147.36,C6H10O2,"3,4-hexanedione",4437-51-8,263.15,Yaw
CC(=O)CCC(C)=O,3,7.960336407719209,2752.5925,202.132,77.57,157.25,C6H10O2,"2,5-hexanedione",110-13-4,267.65,Yaw
CCCC(=O)C(C)=O,"1,2",4.461806407719209,1555.1974,220.508,24.69,153.27,C6H10O2,"2,3-hexanedione",3848-24-6,265.4,Yaw
CC(=O)C(C)C(C)=O,"1,2",4.441116407719209,1694.0069,208.387,59.57,200.78,C6H10O2,"3-methyl-2,4-pentanedione, tautomers",815-57-6,265.4,Yaw
CCOC(=O)CC(C)=O,"1,2",4.778686407719209,1957.8219,228.899,65.09,208.34,C6H10O3,ethylacetoacetate,141-97-9,234.15,Yaw
CCC(=O)OC(=O)CC,"1,2",8.428606407719208,7068.2963,671.608,14.01,198.06,C6H10O3,propionic anhydride,123-62-6,228.15,Yaw
O=C(O)CCCCC(=O)O,"1,2",5.677856407719208,2983.5787,188.477,206.25,366.42,C6H10O4,adipic acid,124-04-9,425.5,Yaw
CCOC(=O)C(=O)OCC,"1,2",5.045246407719208,1929.416,196.963,81.61,209.73,C6H10O4,diethyl oxalate,95-92-1,232.55,Yaw
CC(=O)OCCOC(C)=O,"1,2",4.607876407719209,1836.2705,208.007,74.99,218.35,C6H10O4,ethylene glycol diacetate,111-55-7,242.15,Yaw
CC(=O)OC(C)OC(C)=O,"1,2",4.113486407719209,1371.3343,164.375,64.4,195.32,C6H10O4,ethylidene diacetate,542-10-9,292.0,Yaw
CC(C(=O)O)C(C)C(=O)O,3,6.393626407719209,3041.815,164.366,203.25,334.9,C6H10O4,"2,3-dimethylbutanedioic acid",13545-04-5,405.15,Yaw
COC(=O)CCC(=O)OC,"1,2",5.165996407719209,2334.2463,255.648,75.6,224.16,C6H10O4,dimethyl succinate,106-65-0,291.35,Yaw
CC(CC(=O)O)CC(=O)O,3,6.626006407719208,3145.0051,163.254,206.45,333.98,C6H10O4,3-methylglutaric acid,626-51-7,360.15,Yaw
CC(C)(CC(=O)O)C(=O)O,3,6.393626407719209,3041.815,164.366,203.25,334.9,C6H10O4,"2,2-dimethylsuccinic acid",597-43-3,413.65,Yaw
CC(CCC(=O)O)C(=O)O,3,6.626006407719208,3145.0051,163.254,206.45,333.98,C6H10O4,2-methylglutaric acid,18069-17-5,351.15,Yaw
CCCC(C(=O)O)C(=O)O,3,6.626006407719208,3145.0051,163.254,206.45,333.98,C6H10O4,n-propylmalonic acid,616-62-6,369.0,Yaw
C=CCSCC=C,"1,2",4.213786407719208,1520.0475,222.682,26.73,165.8,C6H10S,diallyl sulfide,592-88-1,188.15,Yaw
CCCCC=CBr,2,4.717006407719208,1679.2403,217.144,37.37,163.12,C6H11Br,1-bromo-1-hexene,57855-22-8,170.8,Yaw
CCCC/C=C\Br,2,4.558376407719209,1622.7692,217.144,34.87,164.02,C6H11Br,cis-1-bromo-1-hexene,13154-12-6,170.8,Yaw
CCCC/C=C/Br,2,4.558376407719209,1622.7692,217.144,34.87,164.02,C6H11Br,trans-1-bromo-1-hexene,13154-13-7,170.8,Yaw
C=C(Br)CCCC,2,4.764236407719209,1694.7302,216.866,38.17,162.84,C6H11Br,2-bromo-1-hexene,3017-66-1,170.8,Yaw
C=CC(Br)CCC,2,4.8122264077192085,1710.4627,216.588,38.97,162.57,C6H11Br,3-bromo-1-hexene,---,170.8,Yaw
C=CCC(Br)CC,2,4.860996407719209,1726.4437,216.31,39.77,162.3,C6H11Br,4-bromo-1-hexene,---,170.8,Yaw
C=CCCC(C)Br,2,4.910546407719209,1742.6793,216.032,40.57,162.03,C6H11Br,5-bromo-1-hexene,4558-27-4,170.8,Yaw
C=CCCCCBr,"1,2",3.834166407719208,1469.4592,215.754,41.37,200.15,C6H11Br,6-bromo-1-hexene,2695-47-8,170.8,Yaw
CCCC=CCBr,2,5.012126407719209,1775.9397,215.476,42.17,161.49,C6H11Br,1-bromo-2-hexene,34686-76-5,170.8,Yaw
CCCC=C(C)Br,2,5.064186407719209,1792.9777,215.198,42.97,161.23,C6H11Br,2-bromo-2-hexene,---,170.8,Yaw
CC=C(Br)CCC,2,5.117116407719209,1810.2966,214.92,43.77,160.97,C6H11Br,3-bromo-2-hexene,---,170.8,Yaw
CC=CC(Br)CC,2,5.170946407719208,1827.9036,214.642,44.57,160.7,C6H11Br,4-bromo-2-hexene,21964-21-6,170.8,Yaw
CC=CCC(C)Br,2,5.225706407719208,1845.8061,214.364,45.37,160.44,C6H11Br,5-bromo-2-hexene,---,170.8,Yaw
CC=CCCCBr,2,5.281406407719208,1864.0118,214.086,46.17,160.19,C6H11Br,6-bromo-2-hexene,36851-77-1,170.8,Yaw
CC(C)=CCCBr,"1,2",4.5161964077192085,1655.5468,213.53,45.27,179.23,C6H11Br,5-bromo-2-methyl-2-pentene,2270-59-9,170.8,Yaw
CCCCCC(Br)(Br)Br,2,4.520476407719209,1970.7545,187.398,120.47,279.67,C6H11Br3,"1,1,1-tribromohexane",62127-63-3,279.3526132642127,ML
CCCCC=CCl,2,3.977516407719208,1421.2097,222.426,20.17,164.14,C6H11Cl,1-chloro-1-hexene,22922-67-4,176.07266038852325,ML
CCCC/C=C\Cl,2,3.988426407719208,1424.776,222.343,20.41,164.05,C6H11Cl,cis-1-chloro-1-hexene,50586-18-0,171.4714392645766,ML
CCCC/C=C/Cl,2,3.988426407719208,1424.776,222.343,20.41,164.05,C6H11Cl,trans-1-chloro-1-hexene,50586-19-1,172.2083423128109,ML
C=C(Cl)CCCC,2,3.702486407719209,1331.1719,224.65,13.77,166.7,C6H11Cl,2-chloro-1-hexene,10124-73-9,168.7389116627423,ML
C=CC(Cl)CCC,2,3.735266407719209,1341.9187,224.372,14.57,166.38,C6H11Cl,3-chloro-1-hexene,---,189.39057240579817,ML
C=CCC(Cl)CC,2,3.768486407719209,1352.8047,224.094,15.37,166.05,C6H11Cl,4-chloro-1-hexene,---,173.5274558137868,ML
C=CCCC(C)Cl,2,3.966656407719209,1417.6578,222.51,19.93,164.23,C6H11Cl,5-chloro-1-hexene,927-54-8,171.89340173723812,ML
C=CCCCCCl,2,4.003046407719209,1429.5537,222.232,20.73,163.92,C6H11Cl,6-chloro-1-hexene,---,174.8818520294535,ML
CCCC=CCCl,2,4.039966407719208,1441.6128,221.954,21.53,163.61,C6H11Cl,1-chloro-2-hexene,---,188.06670821949646,ML
CCCC=C(C)Cl,2,4.051136407719208,1445.2628,221.87,21.77,163.52,C6H11Cl,2-chloro-2-hexene,---,180.05304680541624,ML
CC=C(Cl)CCC,"1,2",4.976416407719209,1674.2772,221.592,22.57,136.51,C6H11Cl,3-chloro-2-hexene,51687-81-1,184.86571726195893,ML
CC=CC(Cl)CC,2,4.051136407719208,1445.2628,221.87,21.77,163.52,C6H11Cl,4-chloro-2-hexene,6734-98-1,197.56612761664474,ML
CC=CCC(C)Cl,2,4.0887364077192085,1457.5391,221.592,22.57,163.22,C6H11Cl,5-chloro-2-hexene,---,175.21092515610658,ML
CC=CCCCCl,2,4.126876407719209,1469.9866,221.314,23.37,162.91,C6H11Cl,6-chloro-2-hexene,---,180.2785224340438,ML
CC(C)=C(C)CCl,2,3.670136407719209,1320.5617,224.928,12.97,167.03,C6H11Cl,"1-chloro-2,3-dimethyl-2-butene",37866-06-1,190.83446470498345,ML
CCC=CCCCl,2,4.0887364077192085,1457.5391,221.592,22.57,163.22,C6H11Cl,1-chloro-3-hexene,62706-16-5,183.12540302116443,ML
CC/C=C(\Cl)CC,"1,2",4.405446407719209,1511.8978,223.538,16.97,144.82,C6H11Cl,cis-3-chloro-3-hexene,17226-34-5,181.42452202210924,ML
C=C(C)C(Cl)CC,2,3.977516407719208,1421.2097,222.426,20.17,164.14,C6H11Cl,3-chloro-2-methyl-1-pentene,4104-01-2,196.057640019802,ML
CC(C)=CCCCl,2,4.452866407719209,1576.2008,219.09,29.77,160.55,C6H11Cl,5-chloro-2-methyl-2-pentene,7712-60-9,181.30775779397496,ML
ClC1CCCCC1,3,5.543766407719209,1862.5891,221.095,29.77,134.18,C6H11Cl,chlorocyclohexane,542-18-7,229.34,Yaw
CCC(CC)C(=O)Cl,3,3.630106407719208,1635.2155,273.15,23.57,218.04,C6H11ClO,2-ethylbutanoyl chloride,2736-40-5,233.187889872096,ML
CCC(C)OC(=O)CCl,3,3.3802664077192084,1459.4254,224.61,16.85,249.35,C6H11ClO2,sec-butyl chloroacetate,17696-64-9,241.36931567743042,ML
CC(C)COC(=O)CCl,3,2.8909664077192083,1197.288,207.01,19.85,255.27,C6H11ClO2,isobutyl chloroacetate,13361-35-8,239.6309068972266,ML
CCCCCC(Cl)(Cl)Cl,2,3.995066407719209,1606.5622,205.746,67.67,229.16,C6H11Cl3,"1,1,1-trichlorohexane",17760-40-6,260.91257847751905,ML
CCCCC=CF,2,4.301516407719209,1416.7004,231.183,-2.03,122.95,C6H11F,1-fluoro-1-hexene,---,156.48368413445667,ML
CCCC/C=C\F,2,4.301516407719209,1416.7004,231.183,-2.03,122.95,C6H11F,cis-1-fluoro-1-hexene,66225-46-5,153.82048804696603,ML
CCCC/C=C/F,2,4.301516407719209,1416.7004,231.183,-2.03,122.95,C6H11F,trans-1-fluoro-1-hexene,66225-47-6,157.16058299449378,ML
C=C(F)CCCC,2,4.301516407719209,1416.7004,231.183,-2.03,122.95,C6H11F,2-fluoro-1-hexene,---,150.97645299464546,ML
C=CC(F)CCC,2,4.301516407719209,1416.7004,231.183,-2.03,122.95,C6H11F,3-fluoro-1-hexene,---,157.11404416219708,ML
C=CCC(F)CC,2,4.301516407719209,1416.7004,231.183,-2.03,122.95,C6H11F,4-fluoro-1-hexene,---,153.5990879175795,ML
C=CCCC(C)F,2,4.301516407719209,1416.7004,231.183,-2.03,122.95,C6H11F,5-fluoro-1-hexene,---,146.28462960855575,ML
C=CCCCCF,2,4.301516407719209,1416.7004,231.183,-2.03,122.95,C6H11F,6-fluoro-1-hexene,---,157.96921857320478,ML
CCCC=CCF,2,4.301516407719209,1416.7004,231.183,-2.03,122.95,C6H11F,1-fluoro-2-hexene,---,157.94784487601788,ML
CCCC=C(C)F,2,4.301516407719209,1416.7004,231.183,-2.03,122.95,C6H11F,2-fluoro-2-hexene,---,146.40824886079884,ML
CC=C(F)CCC,2,4.301516407719209,1416.7004,231.183,-2.03,122.95,C6H11F,3-fluoro-2-hexene,---,148.3928546881856,ML
CC=CC(F)CC,2,4.301516407719209,1416.7004,231.183,-2.03,122.95,C6H11F,4-fluoro-2-hexene,---,156.54469757005376,ML
CC=CCC(C)F,2,4.301516407719209,1416.7004,231.183,-2.03,122.95,C6H11F,5-fluoro-2-hexene,---,150.67475820849668,ML
CC=CCCCF,2,4.301516407719209,1416.7004,231.183,-2.03,122.95,C6H11F,6-fluoro-2-hexene,---,156.3842175890379,ML