smiles,code,A [log10(atm)],B [C],C [C],TMIN [C],TMAX [C],FORMULA,NAME,CAS No,mp [K],mp_type
CC(C)c1ccccc1S,"1,2",4.353826407719208,1806.6372,194.904,94.87,250.87,C9H12S,2-isopropylbenzenethiol,6262-87-9,246.56297854030643,ML
CCSCc1ccccc1,2,4.150676407719208,1773.0363,192.407,101.56,268.16,C9H12S,[(ethylthio)methyl]benzene,6263-62-3,240.33660442668813,ML
CC(N)Cc1ccccc1,"1,2",3.0621564077192085,1050.6956,140.072,72.49,240.46,C9H13N,amphetamine,300-62-9,298.15,Yaw
CC(C)(C)c1ccccn1,2,3.379886407719209,1395.0034,208.804,56.37,244.29,C9H13N,2-tert-butylpyridine,5944-41-2,240.15,Yaw
CC(C)(C)c1cccnc1,2,4.095546407719208,1662.1451,201.91,76.21,236.13,C9H13N,3-tert-butylpyridine,38031-78-6,229.15,Yaw
CCCCc1ccncc1,2,4.615196407719209,1854.8193,197.962,87.57,231.98,C9H13N,4-butylpyridine,5335-75-1,304.48,Yaw
CC(C)(C)c1ccncc1,2,4.152836407719208,1683.4322,201.437,77.57,235.61,C9H13N,4-tert-butylpyridine,3978-81-2,232.15,Yaw
CCc1ncc(C)cc1C,2,4.204416407719209,1702.5886,201.02,78.77,235.16,C9H13N,"2-ethyl-3,5-dimethylpyridine",1123-96-2,304.48,Yaw
CCc1ccc(C)nc1C,2,3.878096407719209,1581.2264,203.8,31.33,238.24,C9H13N,"3-ethyl-2,6-dimethylpyridine",23580-52-1,304.48,Yaw
Cc1cc(C)c(C)c(C)n1,2,4.3837364077192085,1769.1107,199.63,82.77,233.69,C9H13N,"2,3,4,6-tetramethylpyridine",20820-82-0,304.48,Yaw
CCc1cccc(C)c1N,"1,2",4.437816407719208,1876.736,191.846,105.17,261.82,C9H13N,2-ethyl-6-methylaniline,24549-06-2,240.15,Yaw
CCNc1ccccc1C,"1,2",4.355426407719208,1803.4349,196.016,93.17,248.79,C9H13N,N-ethyl-2-methylaniline,94-68-8,266.28,Yaw
CCNc1cccc(C)c1,"1,2",4.430206407719209,1841.5334,194.626,97.17,251.35,C9H13N,N-ethyl-3-methylaniline,102-27-2,266.28,Yaw
CCNc1ccc(C)cc1,"1,2",4.427096407719208,1827.4545,195.738,93.97,247.17,C9H13N,N-ethyl-4-methylaniline,622-57-1,266.28,Yaw
CCN(C)c1ccccc1,"1,2",4.416696407719209,1781.7072,199.352,83.57,233.56,C9H13N,N-ethyl-N-methylaniline,613-97-8,266.28,Yaw
CC(C)c1ccccc1N,2,4.205646407719208,1776.0061,194.626,97.17,260.22,C9H13N,2-isopropylaniline,643-28-7,266.28,Yaw
CC(C)c1ccc(N)cc1,"1,2",4.4332864077192085,1855.6135,193.514,100.37,255.54,C9H13N,4-isopropylaniline,99-88-7,266.28,Yaw
CC(C)Nc1ccccc1,2,3.665716407719208,1566.3405,199.63,82.77,265.89,C9H13N,N-isopropylaniline,768-52-5,266.28,Yaw
Cc1ccccc1N(C)C,"1,2",4.311986407719209,1664.3212,200.625,68.13,214.32,C9H13N,"2-methyl-N,N-dimethylaniline",609-72-3,213.15,Yaw
Cc1cccc(N(C)C)c1,"1,2",4.317066407719208,1779.4002,197.128,89.97,245.95,C9H13N,"3-methyl-N,N-dimethylaniline",121-72-2,266.28,Yaw
Cc1ccc(N(C)C)cc1,"1,2",4.422356407719208,1806.3387,197.406,89.17,240.88,C9H13N,"4-methyl-N,N-dimethylaniline",99-97-8,266.28,Yaw
CCCc1ccccc1N,"1,2",4.543186407719209,1891.2656,193.236,101.17,252.59,C9H13N,2-propylaniline,1821-39-2,266.28,Yaw
CCCNc1ccccc1,"1,2",4.4309864077192085,1845.0533,194.348,97.97,252.4,C9H13N,N-propylaniline,622-80-0,266.28,Yaw
Cc1cc(C)c(N)cc1C,"1,2",4.4404164077192085,1889.0587,190.873,68.0,265.49,C9H13N,"2,4,5-trimethylaniline",137-17-7,341.15,Yaw
Cc1cc(C)c(N)c(C)c1,"1,2",4.438936407719209,1882.0171,191.429,106.37,263.39,C9H13N,"2,4,6-trimethylaniline",88-05-1,270.65,Yaw
CCCCc1cccnc1,"1,2",4.422466407719209,1791.8946,198.63,85.65,236.14,C9H13N,3-butylpyridine,539-32-2,304.48,Yaw
CCCc1ccc(N)cc1,"1,2",4.397196407719209,1841.7305,193.792,99.57,255.83,C9H13N,4-propylaniline,2696-84-6,304.48,Yaw
CCc1cccc(CC)n1,2,4.527676407719208,1822.4315,198.577,85.8,232.6,C9H13N,"2,6-diethylpyridine",935-28-4,304.48,Yaw
Cc1cc(C)c(C)nc1C,"1,2",4.4132264077192085,1759.5324,201.145,78.41,226.74,C9H13N,"2,3,5,6-tetramethylpyridine",3748-84-3,304.48,Yaw
C=CC#CCCCCC,2,3.996916407719208,1512.1841,215.675,41.6,193.48,C9H14,1-nonen-3-yne,57223-18-4,203.19347652230627,ML
C=CCC#CCCCC,2,3.996916407719208,1512.1841,215.675,41.6,193.48,C9H14,1-nonen-4-yne,31508-12-0,203.3135436726824,ML
CC=CC#CCCCC,2,3.996916407719208,1512.1841,215.675,41.6,193.48,C9H14,2-nonen-4-yne,90644-60-3,211.62029624353636,ML
C=CCC#CC(C)(C)C,2,3.3793964077192085,1297.6124,221.314,25.37,200.21,C9H14,"6,6-dimethyl-1-hepten-4-yne",31508-08-4,222.80169266944657,ML
C#CC(=CCC)CCC,2,3.694896407719209,1407.4549,218.256,34.17,196.45,C9H14,3-propyl-3-hexen-1-yne,688-52-8,228.85549935348237,ML
CC1=C(C)C(C)=C(C)C1,3,3.6751164077192087,1375.4176,216.588,30.97,191.05,C9H14,"1,2,3,4-tetramethyl-1,3-cyclopentadiene",4249-10-9,232.0933002030622,ML
C=CC1CC2CCC1C2,3,2.564276407719209,783.2203,142.772,33.43,203.29,C9H14,2-vinylbicyclo[2.2.1]-heptane,2146-39-6,293.4552789421693,ML
CC1=CC2CCC1CC2,3,3.3907964077192085,1268.81,211.53,29.16,199.12,C9H14,2-methylbicyclo[2.2.2]-oct-2-ene,4893-13-4,273.2636913752494,ML
COC(=O)[C@H](CC(C)C)NC(=O)C(F)(F)F,3,5.839286407719209,2922.0,273.15,105.34,254.45,C9H14F3NO3,N-trifluoroacetyl-L-leucine methyl ester,1115-39-5,320.51070193026936,ML
CCCCCCC#CC=O,2,3.638746407719209,1608.8863,198.518,92.97,283.51,C9H14O,2-nonynal,---,250.15,Yaw
CCCCCC#CCC=O,2,3.638746407719209,1608.8863,198.518,92.97,283.51,C9H14O,3-nonynal,---,250.15,Yaw
CCCCC#CCCC=O,2,3.638746407719209,1608.8863,198.518,92.97,283.51,C9H14O,4-nonynal,---,250.15,Yaw
CCCC#CCCCC=O,2,3.638746407719209,1608.8863,198.518,92.97,283.51,C9H14O,5-nonynal,---,250.15,Yaw
CCC#CCCCCC=O,2,3.638746407719209,1608.8863,198.518,92.97,283.51,C9H14O,6-nonynal,---,250.15,Yaw
CC#CCCCCCC=O,2,3.638746407719209,1608.8863,198.518,92.97,283.51,C9H14O,7-nonynal,---,250.15,Yaw
C#CCCCCCCC=O,2,3.638746407719209,1608.8863,198.518,92.97,283.51,C9H14O,8-nonynal,---,250.15,Yaw
C#CCCCCC(C)C=O,2,3.3933964077192087,1509.8399,201.298,84.97,286.95,C9H14O,2-methyl-7-octynal,---,250.15,Yaw
C#CCCCC(C)CC=O,2,3.3933964077192087,1509.8399,201.298,84.97,286.95,C9H14O,3-methyl-7-octynal,---,250.15,Yaw
C#CCCC(C)CCC=O,2,3.3933964077192087,1509.8399,201.298,84.97,286.95,C9H14O,4-methyl-7-octynal,---,250.15,Yaw
C#CCC(C)CCCC=O,2,3.3933964077192087,1509.8399,201.298,84.97,286.95,C9H14O,5-methyl-7-octynal,---,250.15,Yaw
C#CC(C)CCCCC=O,2,3.3933964077192087,1509.8399,201.298,84.97,286.95,C9H14O,6-methyl-7-octynal,---,250.15,Yaw
CCCCC(C)C#CC=O,2,3.3933964077192087,1509.8399,201.298,84.97,286.95,C9H14O,4-methyl-2-octynal,---,250.15,Yaw
CCCC(C)CC#CC=O,2,3.3933964077192087,1509.8399,201.298,84.97,286.95,C9H14O,5-methyl-2-octynal,---,250.15,Yaw
CCC(C)CCC#CC=O,2,3.3933964077192087,1509.8399,201.298,84.97,286.95,C9H14O,6-methyl-2-octynal,---,250.15,Yaw
CC(C)CCCC#CC=O,2,3.3933964077192087,1509.8399,201.298,84.97,286.95,C9H14O,7-methyl-2-octynal,---,250.15,Yaw
CC1=CC(=O)CC(C)(C)C1,"1,2",4.645636407719208,2124.5949,243.781,81.75,245.24,C9H14O,isophorone,78-59-1,265.05,Yaw
C=CCC1CCCCC1=O,3,4.5393764077192085,1800.3899,199.616,80.81,225.17,C9H14O,2-allylcyclohexanone,94-66-6,265.23034894997437,ML
CCCCCc1ccco1,2,6.897866407719208,2505.6671,199.616,85.81,180.21,C9H14O,2-amylfuran,3777-69-3,224.82503638078467,ML
CCCCCCC#CC(=O)O,"1,2",4.818206407719209,2181.0324,180.365,145.0,302.0,C9H14O2,2-nonynoic acid,1846-70-4,265.15,Yaw
CCCCCC#CCC(=O)O,3,4.823096407719208,2309.4419,170.29,174.0,340.0,C9H14O2,3-nonynoic acid,56630-33-2,290.15,Yaw
CCCC#CCCCC(=O)O,3,4.823096407719208,2309.4419,170.29,174.0,340.0,C9H14O2,5-nonynoic acid,56630-34-3,270.15,Yaw
CCC#CCCCCC(=O)O,3,4.823096407719208,2309.4419,170.29,174.0,340.0,C9H14O2,6-nonynoic acid,56630-31-0,287.15,Yaw
CC#CCCCCCC(=O)O,3,4.823096407719208,2309.4419,170.29,174.0,340.0,C9H14O2,7-nonynoic acid,---,280.95,Yaw
C#CCCCCCCC(=O)O,3,4.823096407719208,2309.4419,170.29,174.0,340.0,C9H14O2,8-nonynoic acid,30964-01-3,292.15,Yaw
CCCCC(C)C#CC(=O)O,3,4.823096407719208,2309.4419,170.29,174.0,340.0,C9H14O2,4-methyl-2-octynoic acid,---,280.95,Yaw
CCCC(C)CC#CC(=O)O,3,4.823096407719208,2309.4419,170.29,174.0,340.0,C9H14O2,5-methyl-2-octynoic acid,---,280.95,Yaw
CCC(C)CCC#CC(=O)O,3,4.823096407719208,2309.4419,170.29,174.0,340.0,C9H14O2,6-methyl-2-octynoic acid,---,280.95,Yaw
CC(C)CCCC#CC(=O)O,3,4.823096407719208,2309.4419,170.29,174.0,340.0,C9H14O2,7-methyl-2-octynoic acid,---,280.95,Yaw
CCCCC#CC(C)C(=O)O,3,4.823096407719208,2309.4419,170.29,174.0,340.0,C9H14O2,2-methyl-3-octynoic acid,---,280.95,Yaw
CCCC(C)C#CCC(=O)O,3,4.823096407719208,2309.4419,170.29,174.0,340.0,C9H14O2,5-methyl-3-octynoic acid,---,280.95,Yaw
CCC(C)CC#CCC(=O)O,3,4.823096407719208,2309.4419,170.29,174.0,340.0,C9H14O2,6-methyl-3-octynoic acid,---,280.95,Yaw
CC(C)CCC#CCC(=O)O,3,4.823096407719208,2309.4419,170.29,174.0,340.0,C9H14O2,7-methyl-3-octynoic acid,---,280.95,Yaw
CCCC#CCC(C)C(=O)O,3,4.823096407719208,2309.4419,170.29,174.0,340.0,C9H14O2,2-methyl-4-octynoic acid,---,280.95,Yaw
CCCC#CC(C)CC(=O)O,3,4.823096407719208,2309.4419,170.29,174.0,340.0,C9H14O2,3-methyl-4-octynoic acid,---,280.95,Yaw
CCC(C)C#CCCC(=O)O,3,4.823096407719208,2309.4419,170.29,174.0,340.0,C9H14O2,6-methyl-4-octynoic acid,---,280.95,Yaw
CC(C)CC#CCCC(=O)O,3,4.823096407719208,2309.4419,170.29,174.0,340.0,C9H14O2,7-methyl-4-octynoic acid,---,280.95,Yaw
CCCC(C#CC(=O)O)CC,3,4.823096407719208,2309.4419,170.29,174.0,340.0,C9H14O2,4-ethyl-2-heptynoic acid,---,280.95,Yaw
CCC(CC)CC#CC(=O)O,3,4.823096407719208,2309.4419,170.29,174.0,340.0,C9H14O2,5-ethyl-2-heptynoic acid,---,280.95,Yaw
CC(=O)OCC(COC(C)=O)OC(C)=O,"1,2",4.867966407719209,2162.4543,185.221,135.2,288.28,C9H14O6,glyceryl triacetate,102-76-1,277.25,Yaw
CCCCCc1cccs1,2,4.515766407719209,1813.9094,199.005,84.57,231.37,C9H14S,2-pentylthiophene,4861-58-9,224.0,Yaw
CC(C)CCc1cccs1,2,4.376586407719208,1769.2565,201.576,81.17,232.54,C9H14S,2-isopentylthiophene,26963-33-7,224.0,Yaw
CC(C)CCc1ccsc1,2,4.327636407719209,1744.3571,200.395,80.57,232.81,C9H14S,3-isopentylthiophene,---,224.0,Yaw
CCCC(C)c1cccs1,2,4.0102364077192085,1626.7339,202.966,73.17,235.6,C9H14S,2-sec-pentylthiophene,---,224.0,Yaw
CCCC(C)c1ccsc1,2,4.151446407719209,1679.1088,201.785,76.57,234.3,C9H14S,3-sec-pentylthiophene,---,224.0,Yaw
CCC(C)(C)c1cccs1,2,3.8533264077192086,1568.4371,204.356,69.17,237.17,C9H14S,2-tert-pentylthiophene,10412-56-4,224.0,Yaw
CCC(C)(C)c1ccsc1,2,3.986086407719209,1617.7676,203.175,72.57,235.83,C9H14S,3-tert-pentylthiophene,---,224.0,Yaw
CCCCc1ccsc1C,2,4.554936407719208,1828.3751,198.727,85.37,231.08,C9H14S,2-methyl-3-butylthiophene,---,224.0,Yaw
CCCCc1csc(C)c1,2,4.594636407719209,1843.0347,198.449,86.17,230.8,C9H14S,2-methyl-4-butyl thiophene,---,224.0,Yaw
CCCCc1ccc(C)s1,2,4.6348864077192085,1857.8924,198.171,86.97,230.52,C9H14S,2-methyl-5-butyl thiophene,---,224.0,Yaw
CCCCc1sccc1C,2,4.3550664077192085,1754.5052,200.186,81.17,232.59,C9H14S,3-methyl-2-butylthiophene,---,224.0,Yaw
CCCCc1cscc1C,2,4.392066407719208,1768.1889,199.908,81.97,232.3,C9H14S,3-methyl-4-butyl thiophene,---,224.0,Yaw
CCCCc1cc(C)cs1,2,4.429556407719208,1782.0507,199.63,82.77,232.01,C9H14S,3-methyl-5-butylthiophene,---,224.0,Yaw
CCCCC#CC(C)(C)Cl,2,3.1188664077192083,1391.9304,204.954,73.45,289.02,C9H15Cl,2-chloro-2-methyl-3-octyne,20599-21-7,251.97912698506389,ML
CCCCCCCC#CCl,2,3.1188664077192083,1391.9304,204.954,73.45,289.02,C9H15Cl,1-chloro-1-nonyne,90722-14-8,245.9488006035959,ML
CCCC(=O)OCC(CCl)(CCl)CCl,3,2.831096407719208,1525.0774,169.39,152.85,433.39,C9H15Cl3O2,"3-chloro-2,2-bis(chloromethyl)-propyl butanoate",900001-94-7,307.39752391476196,ML
C#CCCCCCCC,"1,2",4.670726407719209,1704.0631,214.139,45.96,175.83,C9H16,1-nonyne,3452-09-3,223.16,Yaw
CC#CCCCCCC,"1,2",4.674286407719209,1743.3024,211.056,54.89,187.57,C9H16,2-nonyne,19447-29-1,223.16,Yaw
CCC#CCCCCC,"1,2",4.672156407719209,1726.3184,212.391,51.05,182.55,C9H16,3-nonyne,20184-89-8,223.16,Yaw
CCCC#CCCCC,"1,2",4.670766407719209,1715.3498,213.252,48.57,179.3,C9H16,4-nonyne,20184-91-2,223.16,Yaw
C#CC(C)CCCCC,2,4.622046407719209,1689.0155,214.364,45.37,176.52,C9H16,3-methyl-1-octyne,---,223.16,Yaw
C#CCC(C)CCCC,2,4.622046407719209,1689.0155,214.364,45.37,176.52,C9H16,4-methyl-1-octyne,---,223.16,Yaw
C#CCCC(C)CCC,2,4.622046407719209,1689.0155,214.364,45.37,176.52,C9H16,5-methyl-1-octyne,---,223.16,Yaw
C#CCCCC(C)CC,2,4.622046407719209,1689.0155,214.364,45.37,176.52,C9H16,6-methyl-1-octyne,---,223.16,Yaw
C#CCCCCC(C)C,2,4.622046407719209,1689.0155,214.364,45.37,176.52,C9H16,7-methyl-1-octyne,---,223.16,Yaw
CC#CC(C)CCCC,2,4.622046407719209,1689.0155,214.364,45.37,176.52,C9H16,4-methyl-2-octyne,---,223.16,Yaw
CC#CCC(C)CCC,2,4.622046407719209,1689.0155,214.364,45.37,176.52,C9H16,5-methyl-2-octyne,---,223.16,Yaw
CC#CCCC(C)CC,2,4.622046407719209,1689.0155,214.364,45.37,176.52,C9H16,6-methyl-2-octyne,---,223.16,Yaw
CC#CCCCC(C)C,2,4.622046407719209,1689.0155,214.364,45.37,176.52,C9H16,7-methyl-2-octyne,---,223.16,Yaw
CCC#CC(C)CCC,2,4.622046407719209,1689.0155,214.364,45.37,176.52,C9H16,5-methyl-3-octyne,---,223.16,Yaw
CCC#CCC(C)CC,2,4.622046407719209,1689.0155,214.364,45.37,176.52,C9H16,6-methyl-3-octyne,---,223.16,Yaw
CCC#CCCC(C)C,2,4.622046407719209,1689.0155,214.364,45.37,176.52,C9H16,7-methyl-3-octyne,37050-06-9,223.16,Yaw
C#CC(C)(C)CCCC,2,4.327716407719208,1589.8832,216.31,39.77,178.53,C9H16,"3,3-dimethyl-1-heptyne",---,223.16,Yaw
C#CC(C)C(C)CCC,2,4.327716407719208,1589.8832,216.31,39.77,178.53,C9H16,"3,4-dimethyl-1-heptyne",---,223.16,Yaw
C#CC(C)CC(C)CC,2,4.327716407719208,1589.8832,216.31,39.77,178.53,C9H16,"3,5-dimethyl-1-heptyne",---,223.16,Yaw
C#CC(C)CCC(C)C,2,4.327716407719208,1589.8832,216.31,39.77,178.53,C9H16,"3,6-dimethyl-1-heptyne",---,223.16,Yaw
CC#CC(C)(C)CCC,2,4.327716407719208,1589.8832,216.31,39.77,178.53,C9H16,"4,4-dimethyl-2-heptyne",---,223.16,Yaw
CC#CC(C)C(C)CC,2,4.327716407719208,1589.8832,216.31,39.77,178.53,C9H16,"4,5-dimethyl-2-heptyne",---,223.16,Yaw
CC#CC(C)CC(C)C,2,4.327716407719208,1589.8832,216.31,39.77,178.53,C9H16,"4,6-dimethyl-2-heptyne",---,223.16,Yaw
CC(C)C#CCC(C)C,2,4.184886407719208,1551.8355,219.758,36.08,179.8,C9H16,"2,6-dimethyl-3-heptyne",19549-97-4,223.16,Yaw
CCC#CC(C)(C)CC,2,4.327716407719208,1589.8832,216.31,39.77,178.53,C9H16,"5,5-dimethyl-3-heptyne",23097-98-5,223.16,Yaw
C#CC(CC)CCCC,2,4.622046407719209,1689.0155,214.364,45.37,176.52,C9H16,3-ethyl-1-heptyne,---,223.16,Yaw
C#CCC(CC)CCC,2,4.622046407719209,1689.0155,214.364,45.37,176.52,C9H16,4-ethyl-1-heptyne,---,223.16,Yaw
C#CCCC(CC)CC,2,4.622046407719209,1689.0155,214.364,45.37,176.52,C9H16,5-ethyl-1-heptyne,---,223.16,Yaw
CC(C)C#CC(C)(C)C,2,4.092546407719208,1510.4827,218.02,34.85,180.37,C9H16,"2,2,5-trimethyl-3-hexyne",17530-23-3,223.16,Yaw
C=CCCCCCC=C,"1,2",4.759736407719209,1708.7408,216.449,40.87,166.79,C9H16,"1,8-nonadiene",4900-30-5,202.32,Yaw
CC=CCCCC=CC,2,4.784906407719209,1746.5342,213.947,48.07,175.57,C9H16,"2,7-nonadiene",51333-70-1,200.65,Yaw
CCC=CC(C)=CCC,2,4.692936407719209,1715.5732,214.503,46.47,176.12,C9H16,"4-methyl-3,5-octadiene",36903-95-4,202.32,Yaw
CC=CC=CCC(C)C,"1,2",4.770886407719209,1734.1788,214.642,46.07,173.33,C9H16,"7-methyl-2,4-octadiene",2216-70-8,202.32,Yaw
CCC=C(C)C=C(C)C,2,4.214296407719209,1554.0713,217.7,37.27,179.43,C9H16,"2,4-dimethyl-2,4-heptadiene",74421-05-9,202.32,Yaw
C=C(C)C=CCC(C)C,2,4.331536407719208,1593.6928,216.866,39.67,178.54,C9H16,"2,6-dimethyl-1,3-heptadiene",2436-84-2,202.32,Yaw
C=C(C)CCC=C(C)C,2,4.4125464077192085,1621.0446,216.31,41.27,177.96,C9H16,"2,6-dimethyl-1,5-heptadiene",6709-39-3,203.15,Yaw
CC=C(C)C=C(C)CC,2,4.291896407719209,1580.3022,217.144,38.87,178.84,C9H16,"3,5-dimethyl-2,4-heptadiene",101935-28-8,202.32,Yaw
C=CCC(CC)C(=C)C,2,4.495946407719209,1649.1852,215.754,42.87,177.38,C9H16,"3-ethyl-2-methyl-1,5-hexadiene",73398-15-9,203.15,Yaw
C=CCCCC=C(C)C,2,4.433166407719209,1628.0045,216.171,41.67,177.81,C9H16,"7-methyl-1,6-octadiene",42152-47-6,202.32,Yaw
CCCCC1=CCCC1,"1,2",4.203676407719208,1528.7101,209.36,41.89,182.35,C9H16,1-butylcyclopentene,2423-01-0,184.75,Yaw
CC1=CCC(C(C)C)C1,2,4.042656407719209,1485.7205,216.449,34.37,180.63,C9H16,4-isopropyl-1-methylcyclopentene,90769-70-3,184.75,Yaw
CC1C=C(C(C)C)CC1,2,3.901996407719208,1438.3664,217.561,31.17,181.88,C9H16,3-methyl-1-isopropylcyclopentene,51115-02-7,184.75,Yaw
CCCCC1C=CCC1,2,4.126326407719208,1494.2894,211.074,37.68,179.56,C9H16,3-butylcyclopentene,22511-00-8,188.3677207389682,ML
CC1=C(C)C(C)CCC1,2,4.228956407719209,1545.37,214.364,38.57,179.07,C9H16,"1,2,3-trimethylcyclohexene",72312-48-2,181.6,Yaw
CC1=CC(C)CC(C)C1,2,3.900736407719209,1435.1916,216.866,31.37,181.83,C9H16,"1,3,5-trimethylcyclohexene",3643-64-9,181.6,Yaw
CC1=CCC(C)(C)CC1,"1,2",4.2556164077192085,1520.0804,217.144,30.57,167.24,C9H16,"1,4,4-trimethylcyclohexene",3419-71-4,181.6,Yaw
CC1=CCC(C)C(C)C1,"1,2",4.269256407719209,1539.5114,215.754,34.57,172.21,C9H16,"1,4,5-trimethylcyclohexene",20030-32-4,181.6,Yaw
CC1=CCCC(C)(C)C1,2,3.8666964077192088,1423.7397,217.144,30.57,182.15,C9H16,"1,5,5-trimethylcyclohexene",503-46-8,181.6,Yaw
CC1=CCCC(C)C1C,2,3.8666964077192088,1423.7397,217.144,30.57,182.15,C9H16,"1,5,6-trimethylcyclohexene",116724-18-6,181.6,Yaw
CC1=CCCCC1(C)C,"1,2",4.2321064077192085,1533.4032,215.476,35.37,174.6,C9H16,"1,6,6-trimethylcyclohexene",69745-49-9,181.6,Yaw
CCC1=CCC(C)CC1,"1,2",4.168776407719209,1526.9914,214.642,37.77,180.16,C9H16,1-ethyl-4-methylcyclohexene,62088-36-2,181.6,Yaw
CC(C)C1=CCCCC1,"1,2",4.350496407719208,1592.6999,212.947,42.65,180.36,C9H16,1-isopropyl-1-cyclohexene,4292-04-0,181.6,Yaw
CC1C=CCC(C)(C)C1,"1,2",4.249456407719209,1498.0751,218.924,25.45,160.49,C9H16,"3,5,5-trimethylcyclohexene",933-12-0,181.6,Yaw
C1CCC2CCCC2C1,3,4.073026407719208,1519.6847,207.048,48.2,195.84,C9H16,cis-bicyclo[4.3.0]nonane,4551-51-3,220.15,Yaw
CCC1CC2CCC1C2,3,5.972476407719208,3429.2932,408.121,28.55,196.54,C9H16,2-ethylbicyclo[2.2.1]-heptane,2146-41-0,299.7566947778826,ML
C1CCC[C@@H]2C[C@@H]2CC1,3,5.181216407719209,2275.6497,273.15,23.85,193.15,C9H16,cis-bicyclo[6.1.0]nonane,13757-43-2,241.09740147193176,ML
CC12CCC(C)(CC1)C2,3,2.4365964077192084,924.9795,213.558,0.69,219.57,C9H16,"1,4-dimethylbicyclo-[2.2.1]-heptane",20454-81-3,216.66113492346483,ML
CC(C)Nc1nc(Cl)nc(NC(C)C)n1,3,5.354046407719208,3436.4817,273.15,201.84,406.93,C9H16ClN5,propazine,139-40-2,486.15,Yaw
ClCCCCCCCCC(Cl)(Cl)Cl,3,7.445546407719208,3891.1,265.85,151.37,278.78,C9H16Cl4,"1,1,1,9-tetrachlorononane",1561-48-4,291.5600516004196,ML
CCC1(C)CCCCC1=O,2,4.225006407719208,1684.133,201.854,73.97,227.34,C9H16O,2-ethyl-2-methylcyclohexanone,17206-52-9,305.72,Yaw
CC(C)C1CCCCC1=O,2,3.832336407719208,1539.9986,205.087,64.47,231.01,C9H16O,2-isopropylcyclohexanone,1004-77-9,345.65,Yaw
CC(C)C1CCC(=O)CC1,2,4.995306407719209,1964.7978,196.572,89.17,221.98,C9H16O,4-isopropylcyclohexanone,5432-85-9,305.72,Yaw
CCCC1CCCCC1=O,"1,2",4.253346407719208,1698.3555,201.298,75.57,228.41,C9H16O,2-propylcyclohexanone,94-65-5,305.72,Yaw
CCCC1CCC(=O)CC1,2,4.949376407719209,1948.1088,196.85,88.37,222.25,C9H16O,4-propylcyclohexanone,40649-36-3,305.72,Yaw
CC1CCCC(=O)C1(C)C,2,4.086516407719208,1633.476,202.966,32.57,228.54,C9H16O,"2,2,3-trimethylcyclohexanone",39257-08-4,305.72,Yaw
CC1CCC(=O)C(C)(C)C1,2,3.858446407719208,1550.4891,205.087,65.07,230.76,C9H16O,"2,2,4-trimethylcyclohexanone",35413-38-8,330.15,Yaw
CC1CCC(C)(C)C(=O)C1,2,3.829636407719208,1539.3106,205.19,32.57,231.05,C9H16O,"2,2,5-trimethylcyclohexanone",933-36-8,305.72,Yaw
CC1CCCC(C)(C)C1=O,"1,2",4.267066407719208,1642.782,206.441,60.77,207.77,C9H16O,"2,2,6-trimethylcyclohexanone",2408-37-9,241.35,Yaw
CC1CCC(C)C(C)C1=O,"1,2",4.261616407719209,1678.1985,203.244,32.57,220.48,C9H16O,"2,3,6-trimethylcyclohexanone",42185-47-7,305.72,Yaw
CC1CC(C)(C)CCC1=O,"1,2",4.287536407719209,1688.5004,202.966,70.77,220.59,C9H16O,"2,4,4-trimethylcyclohexanone",2230-70-8,305.72,Yaw
CC1CC(C)C(C)CC1=O,"1,2",4.219546407719209,1676.2598,202.41,72.37,225.37,C9H16O,"2,4,5-trimethylcyclohexanone",51299-55-9,305.72,Yaw
CC1CC(C)C(=O)C(C)C1,2,3.9230064077192086,1573.5675,204.356,32.57,230.09,C9H16O,"2,4,6-trimethylcyclohexanone",90645-54-8,305.72,Yaw
CC1CC(=O)CC(C)(C)C1,2,4.019886407719208,1609.0746,203.522,32.57,229.16,C9H16O,"3,3,5-trimethylcyclohexanone",873-94-9,305.72,Yaw
CC1CC(=O)CCC1(C)C,2,3.858446407719208,1550.4891,205.087,65.07,230.76,C9H16O,"3,4,4-trimethylcyclohexanone",40441-35-8,305.72,Yaw
CCC=CC(=O)CC(C)C,2,3.5279564077192083,1470.9709,205.19,66.77,250.65,C9H16O,2-methyl-5-octen-4-one,17577-93-4,238.42670208490836,ML